     270
 i =       19, E =     -8112.1055663428
 Ti         0.0602499132        0.0602496408       -0.0301341938
 Ti         2.3735150522        2.3735147938        1.4651041970
 Ti         4.6837732444        0.0605453332       -0.0293029900
 Ti         6.9962373003        2.3735192788        1.4645442663
 Ti         9.3067012651        0.0606439738       -0.0297010229
 Ti        11.6195517269        2.3727193846        1.4653244550
 Ti         0.0605455345        4.6837730015       -0.0293029530
 Ti         2.3735194922        6.9962370508        1.4645442880
 Ti         4.6837496745        4.6837494327       -0.0292262453
 Ti         6.9959475422        6.9959472710        1.4639471973
 Ti         9.3072227235        4.6838616553       -0.0294153533
 Ti        11.6193704831        6.9957890816        1.4648805916
 Ti         0.0606442318        9.3067010637       -0.0297010167
 Ti         2.3727196784       11.6195514811        1.4653244378
 Ti         4.6838619052        9.3072224539       -0.0294153368
 Ti         6.9957892862       11.6193702668        1.4648805661
 Ti         9.3066277198        9.3066274995       -0.0293539186
 Ti        11.6184514713       11.6184512372        1.4652015169
 Ti         0.0604672975        0.0604670887        2.9560056310
 Ti         2.3731948605        2.3731946090        4.4462157329
 Ti         4.6836340945        0.0612980122        2.9560714071
 Ti         6.9961319393        2.3736537995        4.4455927119
 Ti         9.3062362752        0.0606319300        2.9558178107
 Ti        11.6192644832        2.3728897705        4.4464483990
 Ti         0.0612981751        4.6836338680        2.9560714371
 Ti         2.3736539675        6.9961317127        4.4455927229
 Ti         4.6842203169        4.6842201386        2.9557911927
 Ti         6.9963929946        6.9963927884        4.4448979681
 Ti         9.3071881775        4.6839331492        2.9556245336
 Ti        11.6194760130        6.9959774151        4.4460561956
 Ti         0.0606321636        9.3062361425        2.9558178153
 Ti         2.3728900371       11.6192642542        4.4464483803
 Ti         4.6839333590        9.3071879645        2.9556245299
 Ti         6.9959776177       11.6194758144        4.4460561781
 Ti         9.3063640780        9.3063638906        2.9556232162
 Ti        11.6191778526       11.6191776558        4.4466220346
 Ti         0.0606224878        0.0606222874        5.9334179005
 Ti         2.3733451444        2.3733449014        7.4217975838
 Ti         4.6838300952        0.0611458260        5.9332937721
 Ti         6.9961781699        2.3735603357        7.4213138043
 Ti         9.3066919045        0.0607955468        5.9331591317
 Ti        11.6192983556        2.3730253832        7.4219948940
 Ti         0.0611459722        4.6838298764        5.9332937717
 Ti         2.3735605286        6.9961779405        7.4213138155
 Ti         4.6842675390        4.6842673348        5.9330618300
 Ti         6.9961736215        6.9961734445        7.4206994686
 Ti         9.3073010966        4.6839672099        5.9328742036
 Ti        11.6195239741        6.9961011310        7.4216700138
 Ti         0.0607958049        9.3066917607        5.9331591332
 Ti         2.3730256525       11.6192981065        7.4219948910
 Ti         4.6839674120        9.3073008991        5.9328741944
 Ti         6.9961013444       11.6195237783        7.4216700173
 Ti         9.3066354867        9.3066352823        5.9328258945
 Ti        11.6191023187       11.6191021127        7.4221576238
 Ti         0.0606439494        0.0606437486        8.9087852721
 Ti         2.3735077960        2.3735075563       10.3985909005
 Ti         4.6838819508        0.0610727575        8.9088338645
 Ti         6.9963229190        2.3737142538       10.3983145206
 Ti         9.3066225576        0.0609554317        8.9086856784
 Ti        11.6194652749        2.3730731132       10.3986449699
 Ti         0.0610729250        4.6838817533        8.9088338744
 Ti         2.3737144569        6.9963227071       10.3983145417
 Ti         4.6842638240        4.6842636494        8.9086080331
 Ti         6.9965500965        6.9965498609       10.3977922864
 Ti         9.3072596028        4.6842236894        8.9085505770
 Ti        11.6197043716        6.9962012705       10.3985675425
 Ti         0.0609556666        9.3066224157        8.9086856751
 Ti         2.3730733807       11.6194650528       10.3986449883
 Ti         4.6842238843        9.3072594240        8.9085506006
 Ti         6.9962014597       11.6197041815       10.3985675586
 Ti         9.3068036158        9.3068034284        8.9082710032
 Ti        11.6190566315       11.6190564184       10.3988888375
 Ti         0.0604561794        0.0604559681       11.8888144583
 Ti         2.3726398075        2.3726395548       13.3832012096
 Ti         4.6832209303        0.0607623254       11.8892442419
 Ti         6.9958411795        2.3731453111       13.3829882166
 Ti         9.3067744149        0.0610135748       11.8889320540
 Ti        11.6191515050        2.3725448725       13.3833073166
 Ti         0.0607625012        4.6832207164       11.8892442400
 Ti         2.3731455263        6.9958409206       13.3829882471
 Ti         4.6839025979        4.6839023753       11.8893080944
 Ti         6.9962610138        6.9962608031       13.3826618084
 Ti         9.3072133023        4.6840634267       11.8891992921
 Ti        11.6192965164        6.9962114618       13.3831783785
 Ti         0.0610138088        9.3067742707       11.8889320758
 Ti         2.3725451796       11.6191512442       13.3833073088
 Ti         4.6840636443        9.3072130711       11.8891992919
 Ti         6.9962116727       11.6192962936       13.3831783749
 Ti         9.3071039587        9.3071037578       11.8889117333
 Ti        11.6192818973       11.6192816849       13.3832211320
  O         1.4735645659        1.4735645112       -0.0286142107
  O         3.2777770022        3.2777768492       -0.0254459182
  O         0.9658096122        3.7849789774        1.4681073254
  O         3.7849791237        0.9658095201        1.4681073126
  O         6.0967085466        1.4738374404       -0.0258821556
  O         7.9010669219        3.2778215779       -0.0257259212
  O         5.5888033886        3.7849817187        1.4688319985
  O         8.4084547592        0.9658998167        1.4678494129
  O        10.7200444529        1.4737866149       -0.0283151683
  O        12.5241974105        3.2779171093       -0.0267883252
  O        10.2119598834        3.7851637850        1.4680601674
  O        13.0309405823        0.9656114611        1.4666262312
  O         1.4738375709        6.0967084551       -0.0258821374
  O         3.2778216679        7.9010668518       -0.0257258337
  O         0.9658999133        8.4084546671        1.4678494290
  O         3.7849818104        5.5888032352        1.4688320132
  O         6.0965929323        6.0965928590       -0.0247202445
  O         7.9011209855        7.9011208651       -0.0254162292
  O         5.5889916147        8.4080965337        1.4685158402
  O         8.4080966134        5.5889914972        1.4685158659
  O        10.7198814478        6.0967593685       -0.0259116612
  O        12.5241136877        7.9010477131       -0.0261234581
  O        10.2119330896        8.4082418404        1.4683896892
  O        13.0308908224        5.5888358023        1.4680735107
  O         1.4737866825       10.7200444002       -0.0283151353
  O         3.2779172517       12.5241973297       -0.0267884142
  O         0.9656116062       13.0309404400        1.4666262243
  O         3.7851639015       10.2119597989        1.4680601959
  O         6.0967594548       10.7198813502       -0.0259117393
  O         7.9010478479       12.5241135704       -0.0261234366
  O         5.5888359110       13.0308906703        1.4680734590
  O         8.4082419079       10.2119329964        1.4683897007
  O        10.7201184986       10.7201183776       -0.0261338651
  O        12.5243747860       12.5243747402       -0.0303249215
  O        10.2121989727       13.0311769733        1.4672777589
  O        13.0311770729       10.2121988821        1.4672777758
  O         1.4736628717        1.4736627883        2.9590428304
  O         3.2774982110        3.2774980827        2.9589445887
  O         0.9658246460        3.7850086445        4.4479691007
  O         3.7850087615        0.9658245283        4.4479690863
  O         6.0969751691        1.4738650330        2.9593519198
  O         7.9008583679        3.2776588208        2.9594856139
  O         5.5889854838        3.7850769824        4.4481824055
  O         8.4084054055        0.9660031468        4.4478628983
  O        10.7202440114        1.4740451988        2.9589049767
  O        12.5237812599        3.2777985246        2.9587813528
  O        10.2119189422        3.7851869610        4.4480778511
  O        13.0310053877        0.9658214923        4.4477418919
  O         1.4738651460        6.0969750940        2.9593519443
  O         3.2776589280        7.9008582894        2.9594856382
  O         0.9660032342        8.4084053652        4.4478628875
  O         3.7850770168        5.5889853147        4.4481824231
  O         6.0967890737        6.0967890050        2.9595261253
  O         7.9009063805        7.9009062823        2.9597014172
  O         5.5891075787        8.4080509192        4.4480505381
  O         8.4080508938        5.5891074078        4.4480505468
  O        10.7199174079        6.0970166442        2.9592723518
  O        12.5239587604        7.9009672555        2.9592617404
  O        10.2119418797        8.4081254068        4.4480779741
  O        13.0310619139        5.5890613063        4.4479457756
  O         1.4740452978       10.7202438989        2.9589049600
  O         3.2777985834       12.5237812570        2.9587813383
  O         0.9658216463       13.0310053290        4.4477418782
  O         3.7851870297       10.2119188578        4.4480778461
  O         6.0970166906       10.7199173814        2.9592723486
  O         7.9009673887       12.5239586935        2.9592617279
  O         5.5890614288       13.0310618444        4.4479457592
  O         8.4081254667       10.2119418216        4.4480779896
  O        10.7204526812       10.7204525562        2.9586313160
  O        12.5241061129       12.5241060462        2.9585144255
  O        10.2117390876       13.0308194641        4.4479104573
  O        13.0308195245       10.2117389791        4.4479104590
  O         1.4737996659        1.4737996516        5.9352326033
  O         3.2776585954        3.2776584932        5.9352274938
  O         0.9658796057        3.7851046086        7.4224630520
  O         3.7851047285        0.9658795417        7.4224630607
  O         6.0966556487        1.4740362884        5.9353705330
  O         7.9008061462        3.2777848966        5.9353575833
  O         5.5890958304        3.7850658108        7.4225272155
  O         8.4082176085        0.9660761657        7.4224445896
  O        10.7199643485        1.4740360716        5.9351854890
  O        12.5239398661        3.2779480460        5.9352097882
  O        10.2119239868        3.7852748660        7.4225367865
  O        13.0309387583        0.9659836375        7.4223456188
  O         1.4740363618        6.0966555910        5.9353705488
  O         3.2777849692        7.9008060940        5.9353575861
  O         0.9660762411        8.4082175555        7.4224445923
  O         3.7850658442        5.5890956747        7.4225272103
  O         6.0966576335        6.0966576339        5.9354333354
  O         7.9008591715        7.9008590556        5.9354464276
  O         5.5892035071        8.4078966734        7.4225161299
  O         8.4078966673        5.5892033773        7.4225161248
  O        10.7198758055        6.0968887126        5.9352913896
  O        12.5238646285        7.9007424211        5.9353276529
  O        10.2119672606        8.4079335357        7.4224864180
  O        13.0310022269        5.5891857114        7.4224284347
  O         1.4740361506       10.7199642530        5.9351854791
  O         3.2779481105       12.5239398615        5.9352097857
  O         0.9659837773       13.0309386938        7.4223456323
  O         3.7852749421       10.2119239000        7.4225367941
  O         6.0968887315       10.7198757701        5.9352913888
  O         7.9007425255       12.5238645791        5.9353276451
  O         5.5891858527       13.0310021535        7.4224284394
  O         8.4079336035       10.2119672079        7.4224864061
  O        10.7201837783       10.7201837169        5.9350976089
  O        12.5240248594       12.5240247801        5.9351470369
  O        10.2116794039       13.0307542261        7.4224086733
  O        13.0307542673       10.2116792877        7.4224086804
  O         1.4740565875        1.4740565348        8.9095923272
  O         3.2777990537        3.2777989274        8.9097068048
  O         0.9659222677        3.7853040491       10.3982181372
  O         3.7853041684        0.9659221972       10.3982181361
  O         6.0968639619        1.4741182790        8.9097079176
  O         7.9008106290        3.2777532499        8.9097754036
  O         5.5889353399        3.7852019617       10.3985344912
  O         8.4081796400        0.9661334854       10.3980335512
  O        10.7200500711        1.4741951772        8.9094653167
  O        12.5238818081        3.2780083867        8.9095094346
  O        10.2118022588        3.7855047891       10.3983652122
  O        13.0309179696        0.9659822975       10.3976307653
  O         1.4741183684        6.0968639159        8.9097079212
  O         3.2777533399        7.9008105799        8.9097753896
  O         0.9661335633        8.4081795625       10.3980335760
  O         3.7852019982        5.5889351871       10.3985344760
  O         6.0967259584        6.0967259422        8.9099228171
  O         7.9008081064        7.9008079884        8.9099520251
  O         5.5892057767        8.4078614978       10.3985221849
  O         8.4078615364        5.5892056454       10.3985221626
  O        10.7199107758        6.0969006350        8.9097102167
  O        12.5238346401        7.9006893780        8.9097163283
  O        10.2118266861        8.4081206961       10.3983804323
  O        13.0309353322        5.5891707081       10.3981058708
  O         1.4741952394       10.7200500051        8.9094653438
  O         3.2780084711       12.5238817631        8.9095094396
  O         0.9659824142       13.0309178773       10.3976307765
  O         3.7855048678       10.2118021929       10.3983652247
  O         6.0969006657       10.7199107412        8.9097102132
  O         7.9006894978       12.5238345673        8.9097163402
  O         5.5891708137       13.0309352175       10.3981058768
  O         8.4081207570       10.2118266217       10.3983804295
  O        10.7201447119       10.7201446154        8.9094891389
  O        12.5238688662       12.5238687837        8.9095332384
  O        10.2116697733       13.0310093376       10.3980032737
  O        13.0310094319       10.2116696960       10.3980032672
  O         1.4743231447        1.4743230154       11.8884504529
  O         3.2779300580        3.2779299410       11.8888684126
  O         0.9661344804        3.7852885674       13.3823715060
  O         3.7852886957        0.9661344037       13.3823714183
  O         6.0971303869        1.4740750165       11.8892379185
  O         7.9006367636        3.2778702467       11.8893404201
  O         5.5892430806        3.7849504131       13.3842942657
  O         8.4079323104        0.9660822069       13.3826710321
  O        10.7201000537        1.4743940185       11.8884573290
  O        12.5237128809        3.2782449845       11.8883526001
  O        10.2118853766        3.7851786675       13.3827479682
  O        13.0309591405        0.9662740035       13.3804095206
  O         1.4740751646        6.0971302858       11.8892379609
  O         3.2778703680        7.9006366814       11.8893404238
  O         0.9660823162        8.4079322056       13.3826710566
  O         3.7849505015        5.5892429403       13.3842942657
  O         6.0967251065        6.0967250003       11.8900521766
  O         7.9007695868        7.9007694893       11.8896746164
  O         5.5893598548        8.4076814508       13.3840731622
  O         8.4076815436        5.5893597118       13.3840730818
  O        10.7197890769        6.0971898674       11.8894969520
  O        12.5237051074        7.9005376628       11.8889378021
  O        10.2121566419        8.4080285812       13.3834537692
  O        13.0305857677        5.5890563302       13.3834849247
  O         1.4743941256       10.7200999282       11.8884573161
  O         3.2782450915       12.5237128301       11.8883526227
  O         0.9662741169       13.0309590098       13.3804095526
  O         3.7851787782       10.2118852577       13.3827479324
  O         6.0971899506       10.7197889840       11.8894969696
  O         7.9005378105       12.5237050157       11.8889377802
  O         5.5890564828       13.0305856512       13.3834849392
  O         8.4080286818       10.2121565493       13.3834537385
  O        10.7200673664       10.7200672311       11.8882535739
  O        12.5237571767       12.5237571256       11.8880505800
  O        10.2116315309       13.0306049384       13.3814094366
  O        13.0306050387       10.2116313882       13.3814094321
