 DBCSR| Multiplication driver                                               BLAS
 DBCSR| Multrec recursion limit                                              512
 DBCSR| Multiplication stack size                                           1000
 DBCSR| Maximum elements for images                                    UNLIMITED
 DBCSR| Multiplicative factor virtual images                                   1
 DBCSR| Multiplication size stacks                                             3
 DBCSR| Number of 3D layers                                               SINGLE
 DBCSR| Use MPI memory allocation                                              T
 DBCSR| Use RMA algorithm                                                      F
 DBCSR| Use Communication thread                                               T
 DBCSR| Communication thread load                                             87


  **** **** ******  **  PROGRAM STARTED AT               2020-04-19 21:49:47.094
 ***** ** ***  *** **   PROGRAM STARTED ON        cpn-u23-36.cbls.ccr.buffalo.ed
 **    ****   ******    PROGRAM STARTED BY                              pavankum
 ***** **    ** ** **   PROGRAM PROCESS ID                                236436
  **** **  *******  **  PROGRAM STARTED IN /projects/academic/mdupuis2/pavan/MOA
                                           /7.TiO2_pbe_plus_U10/ti_atoms/lowdin_
                                           at_mull_opt_geo/all_orbs_neutral

 CP2K| version string:                                          CP2K version 6.1
 CP2K| source code revision number:                                    svn:18464
 CP2K| cp2kflags: libint fftw3 libxc parallel mpi3 scalapack libderiv_max_am1=5 
 CP2K|            libint_max_am=6
 CP2K| is freely available from                            https://www.cp2k.org/
 CP2K| Program compiled at                          Fri Nov 30 14:17:09 EST 2018
 CP2K| Program compiled on                       srv-p22-12.cbls.ccr.buffalo.edu
 CP2K| Program compiled for                                                local
 CP2K| Data directory path    /projects/academic/mdupuis2/pavan/cp2k/cp2k-6.1/da
 CP2K| Input file name                                                 input.inp

 GLOBAL| Force Environment number                                              1
 GLOBAL| Basis set file name            /projects/academic/mdupuis2/pavan/BASIS_
 GLOBAL| Potential file name            /projects/academic/mdupuis2/pavan/POTENT
 GLOBAL| MM Potential file name                                     MM_POTENTIAL
 GLOBAL| Coordinate file name                                  ./opt_neutral.xyz
 GLOBAL| Method name                                                        CP2K
 GLOBAL| Project name                                                    p_tio2_
 GLOBAL| Preferred FFT library                                             FFTW3
 GLOBAL| Preferred diagonalization lib.                                       SL
 GLOBAL| Run type                                                         ENERGY
 GLOBAL| All-to-all communication in single precision                          F
 GLOBAL| FFTs using library dependent lengths                                  T
 GLOBAL| Global print level                                               MEDIUM
 GLOBAL| Total number of message passing processes                           128
 GLOBAL| Number of threads for this process                                    1
 GLOBAL| This output is from process                                           0
 GLOBAL| CPU model name :  Intel(R) Xeon(R) Gold 6130 CPU @ 2.10GHz

 MEMORY| system memory details [Kb]
 MEMORY|                        rank 0           min           max       average
 MEMORY| MemTotal            196332632     196332632     196332660     196332639
 MEMORY| MemFree             141562792     141562792     180050148     159822858
 MEMORY| Buffers                472428        294912        541760        452724
 MEMORY| Cached               47912756       9566356      47912756      29742914
 MEMORY| Slab                   895736        742880        964700        851794
 MEMORY| SReclaimable           603572        462496        671352        563676
 MEMORY| MemLikelyFree       190551548     190551548     190597616     190582172


 *** Fundamental physical constants (SI units) ***

 *** Literature: B. J. Mohr and B. N. Taylor,
 ***             CODATA recommended values of the fundamental physical
 ***             constants: 2006, Web Version 5.1
 ***             http://physics.nist.gov/constants

 Speed of light in vacuum [m/s]                             2.99792458000000E+08
 Magnetic constant or permeability of vacuum [N/A**2]       1.25663706143592E-06
 Electric constant or permittivity of vacuum [F/m]          8.85418781762039E-12
 Planck constant (h) [J*s]                                  6.62606896000000E-34
 Planck constant (h-bar) [J*s]                              1.05457162825177E-34
 Elementary charge [C]                                      1.60217648700000E-19
 Electron mass [kg]                                         9.10938215000000E-31
 Electron g factor [ ]                                     -2.00231930436220E+00
 Proton mass [kg]                                           1.67262163700000E-27
 Fine-structure constant                                    7.29735253760000E-03
 Rydberg constant [1/m]                                     1.09737315685270E+07
 Avogadro constant [1/mol]                                  6.02214179000000E+23
 Boltzmann constant [J/K]                                   1.38065040000000E-23
 Atomic mass unit [kg]                                      1.66053878200000E-27
 Bohr radius [m]                                            5.29177208590000E-11

 *** Conversion factors ***

 [u] -> [a.u.]                                              1.82288848426455E+03
 [Angstrom] -> [Bohr] = [a.u.]                              1.88972613288564E+00
 [a.u.] = [Bohr] -> [Angstrom]                              5.29177208590000E-01
 [a.u.] -> [s]                                              2.41888432650478E-17
 [a.u.] -> [fs]                                             2.41888432650478E-02
 [a.u.] -> [J]                                              4.35974393937059E-18
 [a.u.] -> [N]                                              8.23872205491840E-08
 [a.u.] -> [K]                                              3.15774647902944E+05
 [a.u.] -> [kJ/mol]                                         2.62549961709828E+03
 [a.u.] -> [kcal/mol]                                       6.27509468713739E+02
 [a.u.] -> [Pa]                                             2.94210107994716E+13
 [a.u.] -> [bar]                                            2.94210107994716E+08
 [a.u.] -> [atm]                                            2.90362800883016E+08
 [a.u.] -> [eV]                                             2.72113838565563E+01
 [a.u.] -> [Hz]                                             6.57968392072181E+15
 [a.u.] -> [1/cm] (wave numbers)                            2.19474631370540E+05
 [a.u./Bohr**2] -> [1/cm]                                   5.14048714338585E+03
 

 CELL_TOP| Volume [angstrom^3]:                                         2867.349
 CELL_TOP| Vector a [angstrom    13.869     0.000     0.000    |a| =      13.869
 CELL_TOP| Vector b [angstrom     0.000    13.869     0.000    |b| =      13.869
 CELL_TOP| Vector c [angstrom     0.000     0.000    14.907    |c| =      14.907
 CELL_TOP| Angle (b,c), alpha [degree]:                                   90.000
 CELL_TOP| Angle (a,c), beta  [degree]:                                   90.000
 CELL_TOP| Angle (a,b), gamma [degree]:                                   90.000
 CELL_TOP| Numerically orthorhombic:                                         YES

 CELL| Volume [angstrom^3]:                                             2867.349
 CELL| Vector a [angstrom]:      13.869     0.000     0.000    |a| =      13.869
 CELL| Vector b [angstrom]:       0.000    13.869     0.000    |b| =      13.869
 CELL| Vector c [angstrom]:       0.000     0.000    14.907    |c| =      14.907
 CELL| Angle (b,c), alpha [degree]:                                       90.000
 CELL| Angle (a,c), beta  [degree]:                                       90.000
 CELL| Angle (a,b), gamma [degree]:                                       90.000
 CELL| Numerically orthorhombic:                                             YES

 CELL_REF| Volume [angstrom^3]:                                         2867.349
 CELL_REF| Vector a [angstrom    13.869     0.000     0.000    |a| =      13.869
 CELL_REF| Vector b [angstrom     0.000    13.869     0.000    |b| =      13.869
 CELL_REF| Vector c [angstrom     0.000     0.000    14.907    |c| =      14.907
 CELL_REF| Angle (b,c), alpha [degree]:                                   90.000
 CELL_REF| Angle (a,c), beta  [degree]:                                   90.000
 CELL_REF| Angle (a,b), gamma [degree]:                                   90.000
 CELL_REF| Numerically orthorhombic:                                         YES

 *******************************************************************************
 *******************************************************************************
 **                                                                           **
 **     #####                         ##              ##                      **
 **    ##   ##            ##          ##              ##                      **
 **   ##     ##                       ##            ######                    **
 **   ##     ##  ##   ##  ##   #####  ##  ##   ####   ##    #####    #####    **
 **   ##     ##  ##   ##  ##  ##      ## ##   ##      ##   ##   ##  ##   ##   **
 **   ##  ## ##  ##   ##  ##  ##      ####     ###    ##   ######   ######    **
 **    ##  ###   ##   ##  ##  ##      ## ##      ##   ##   ##       ##        **
 **     #######   #####   ##   #####  ##  ##  ####    ##    #####   ##        **
 **           ##                                                    ##        **
 **                                                                           **
 **                                                ... make the atoms dance   **
 **                                                                           **
 **            Copyright (C) by CP2K developers group (2000 - 2018)           **
 **                                                                           **
 *******************************************************************************

 DFT| Spin unrestricted (spin-polarized) Kohn-Sham calculation               UKS
 DFT| Multiplicity                                                             1
 DFT| Number of spin states                                                    2
 DFT| Charge                                                                   0
 DFT| Self-interaction correction (SIC)                                       NO
 DFT| Cutoffs: density                                              1.000000E-10
 DFT|          gradient                                             1.000000E-10
 DFT|          tau                                                  1.000000E-10
 DFT|          cutoff_smoothing_range                               0.000000E+00
 DFT| XC density smoothing                                                  NONE
 DFT| XC derivatives                                                          PW

 DFT+U| Method                                                            LOWDIN
 DFT+U| Check atomic kind information for details
 FUNCTIONAL| ROUTINE=NEW
 FUNCTIONAL| PBE:
 FUNCTIONAL| J.P.Perdew, K.Burke, M.Ernzerhof, Phys. Rev. Letter, vol. 77, n 18,
 FUNCTIONAL|  pp. 3865-3868, (1996){spin polarized}                             

 QS| Method:                                                                 GPW
 QS| Density plane wave grid type                        NON-SPHERICAL FULLSPACE
 QS| Number of grid levels:                                                   10
 QS| Density cutoff [a.u.]:                                                325.0
 QS| Multi grid cutoff [a.u.]: 1) grid level                               325.0
 QS|                           2) grid level                               108.3
 QS|                           3) grid level                                36.1
 QS|                           4) grid level                                12.0
 QS|                           5) grid level                                 4.0
 QS|                           6) grid level                                 1.3
 QS|                           7) grid level                                 0.4
 QS|                           8) grid level                                 0.1
 QS|                           9) grid level                                 0.0
 QS|                          10) grid level                                 0.0
 QS| Grid level progression factor:                                          3.0
 QS| Relative density cutoff [a.u.]:                                        30.0
 QS| Consistent realspace mapping and integration 
 QS| Interaction thresholds: eps_pgf_orb:                                1.0E-12
 QS|                         eps_filter_matrix:                          0.0E+00
 QS|                         eps_core_charge:                            1.0E-14
 QS|                         eps_rho_gspace:                             1.0E-12
 QS|                         eps_rho_rspace:                             1.0E-12
 QS|                         eps_gvg_rspace:                             1.0E-06
 QS|                         eps_ppl:                                    1.0E-02
 QS|                         eps_ppnl:                                   1.0E-08


 ATOMIC KIND INFORMATION

  1. Atomic kind: Ti                                    Number of atoms:      90

     Orbital Basis Set                                         SZV-MOLOPT-SR-GTH

       Number of orbital shell sets:                                           1
       Number of orbital shells:                                               4
       Number of primitive Cartesian functions:                                6
       Number of Cartesian basis functions:                                   11
       Number of spherical basis functions:                                   10
       Norm type:                                                              2

       Normalised Cartesian orbitals:

                        Set   Shell   Orbital            Exponent    Coefficient

                          1       1    2s                7.884570       0.015554
                                                         3.894698       0.963603
                                                         1.513589      -0.631435
                                                         0.596768      -0.343022
                                                         0.222222      -0.006534
                                                         0.077078       0.007652

                          1       2    3s                7.884570      -0.009340
                                                         3.894698       0.212624
                                                         1.513589      -0.258368
                                                         0.596768      -0.226206
                                                         0.222222       0.039438
                                                         0.077078       0.107179

                          1       3    3px               7.884570      -2.034794
                                                         3.894698       0.782008
                                                         1.513589       1.253903
                                                         0.596768       0.347823
                                                         0.222222       0.016778
                                                         0.077078      -0.000433
                          1       3    3py               7.884570      -2.034794
                                                         3.894698       0.782008
                                                         1.513589       1.253903
                                                         0.596768       0.347823
                                                         0.222222       0.016778
                                                         0.077078      -0.000433
                          1       3    3pz               7.884570      -2.034794
                                                         3.894698       0.782008
                                                         1.513589       1.253903
                                                         0.596768       0.347823
                                                         0.222222       0.016778
                                                         0.077078      -0.000433

                          1       4    4dx2              7.884570       3.047350
                                                         3.894698       3.289529
                                                         1.513589       1.060616
                                                         0.596768       0.249930
                                                         0.222222       0.038806
                                                         0.077078       0.002319
                          1       4    4dxy              7.884570       5.278165
                                                         3.894698       5.697631
                                                         1.513589       1.837041
                                                         0.596768       0.432892
                                                         0.222222       0.067214
                                                         0.077078       0.004017
                          1       4    4dxz              7.884570       5.278165
                                                         3.894698       5.697631
                                                         1.513589       1.837041
                                                         0.596768       0.432892
                                                         0.222222       0.067214
                                                         0.077078       0.004017
                          1       4    4dy2              7.884570       3.047350
                                                         3.894698       3.289529
                                                         1.513589       1.060616
                                                         0.596768       0.249930
                                                         0.222222       0.038806
                                                         0.077078       0.002319
                          1       4    4dyz              7.884570       5.278165
                                                         3.894698       5.697631
                                                         1.513589       1.837041
                                                         0.596768       0.432892
                                                         0.222222       0.067214
                                                         0.077078       0.004017
                          1       4    4dz2              7.884570       3.047350
                                                         3.894698       3.289529
                                                         1.513589       1.060616
                                                         0.596768       0.249930
                                                         0.222222       0.038806
                                                         0.077078       0.002319

     GTH Potential information for                                   GTH-PBE-q12

       Description:                       Goedecker-Teter-Hutter pseudopotential
                                           Goedecker et al., PRB 54, 1703 (1996)
                                          Hartwigsen et al., PRB 58, 3641 (1998)
                                                      Krack, TCA 114, 145 (2005)

       Gaussian exponent of the core charge distribution:               3.462604
       Electronic configuration (s p d ...):                           4   6   2

       Parameters of the local part of the GTH pseudopotential:

                          rloc        C1          C2          C3          C4
                        0.380000    8.711442   -0.700287

       Parameters of the non-local part of the GTH pseudopotential:

                   l      r(l)      h(i,j,l)

                   0    0.337771    2.575264    3.692971
                                    3.692971   -4.767605
                   1    0.242531   -4.630541    8.870875
                                    8.870875  -10.496161
                   2    0.243317   -9.406653

     A DFT+U correction is applied to atoms of this atomic kind:
       Angular quantum momentum number L:                                      2
       U(eff) = (U - J) value in [eV]:                                     9.987

  2. Atomic kind: O                                     Number of atoms:     180

     Orbital Basis Set                                            SZV-MOLOPT-GTH

       Number of orbital shell sets:                                           1
       Number of orbital shells:                                               2
       Number of primitive Cartesian functions:                                7
       Number of Cartesian basis functions:                                    4
       Number of spherical basis functions:                                    4
       Norm type:                                                              2

       Normalised Cartesian orbitals:

                        Set   Shell   Orbital            Exponent    Coefficient

                          1       1    2s               12.015955      -0.284499
                                                         5.108150      -0.322498
                                                         2.048398       0.148191
                                                         0.832382       0.295475
                                                         0.352316       0.150829
                                                         0.142977       0.015788
                                                         0.046761      -0.000019

                          1       2    3px              12.015955       1.192141
                                                         5.108150       1.354170
                                                         2.048398       0.897267
                                                         0.832382       0.408839
                                                         0.352316       0.116648
                                                         0.142977       0.022184
                                                         0.046761       0.000308
                          1       2    3py              12.015955       1.192141
                                                         5.108150       1.354170
                                                         2.048398       0.897267
                                                         0.832382       0.408839
                                                         0.352316       0.116648
                                                         0.142977       0.022184
                                                         0.046761       0.000308
                          1       2    3pz              12.015955       1.192141
                                                         5.108150       1.354170
                                                         2.048398       0.897267
                                                         0.832382       0.408839
                                                         0.352316       0.116648
                                                         0.142977       0.022184
                                                         0.046761       0.000308

     GTH Potential information for                                    GTH-PBE-q6

       Description:                       Goedecker-Teter-Hutter pseudopotential
                                           Goedecker et al., PRB 54, 1703 (1996)
                                          Hartwigsen et al., PRB 58, 3641 (1998)
                                                      Krack, TCA 114, 145 (2005)

       Gaussian exponent of the core charge distribution:               8.360253
       Electronic configuration (s p d ...):                               2   4

       Parameters of the local part of the GTH pseudopotential:

                          rloc        C1          C2          C3          C4
                        0.244554  -16.667215    2.487311

       Parameters of the non-local part of the GTH pseudopotential:

                   l      r(l)      h(i,j,l)

                   0    0.220956   18.337458
                   1    0.211332


 MOLECULE KIND INFORMATION


 All atoms are their own molecule, skipping detailed information


 TOTAL NUMBERS AND MAXIMUM NUMBERS

  Total number of            - Atomic kinds:                                   2
                             - Atoms:                                        270
                             - Shell sets:                                   270
                             - Shells:                                       720
                             - Primitive Cartesian functions:               1800
                             - Cartesian basis functions:                   1710
                             - Spherical basis functions:                   1620

  Maximum angular momentum of- Orbital basis functions:                        2
                             - Local part of the GTH pseudopotential:          2
                             - Non-local part of the GTH pseudopotential:      3


 MODULE QUICKSTEP:  ATOMIC COORDINATES IN angstrom

  Atom  Kind  Element       X           Y           Z          Z(eff)       Mass

       1     1 Ti  22    0.060250    0.060250   -0.030134     12.00      47.8670
       2     1 Ti  22    2.373515    2.373515    1.465104     12.00      47.8670
       3     1 Ti  22    4.683773    0.060545   -0.029303     12.00      47.8670
       4     1 Ti  22    6.996237    2.373519    1.464544     12.00      47.8670
       5     1 Ti  22    9.306701    0.060644   -0.029701     12.00      47.8670
       6     1 Ti  22   11.619552    2.372719    1.465324     12.00      47.8670
       7     1 Ti  22    0.060546    4.683773   -0.029303     12.00      47.8670
       8     1 Ti  22    2.373519    6.996237    1.464544     12.00      47.8670
       9     1 Ti  22    4.683750    4.683749   -0.029226     12.00      47.8670
      10     1 Ti  22    6.995948    6.995947    1.463947     12.00      47.8670
      11     1 Ti  22    9.307223    4.683862   -0.029415     12.00      47.8670
      12     1 Ti  22   11.619370    6.995789    1.464881     12.00      47.8670
      13     1 Ti  22    0.060644    9.306701   -0.029701     12.00      47.8670
      14     1 Ti  22    2.372720   11.619551    1.465324     12.00      47.8670
      15     1 Ti  22    4.683862    9.307222   -0.029415     12.00      47.8670
      16     1 Ti  22    6.995789   11.619370    1.464881     12.00      47.8670
      17     1 Ti  22    9.306628    9.306627   -0.029354     12.00      47.8670
      18     1 Ti  22   11.618451   11.618451    1.465202     12.00      47.8670
      19     1 Ti  22    0.060467    0.060467    2.956006     12.00      47.8670
      20     1 Ti  22    2.373195    2.373195    4.446216     12.00      47.8670
      21     1 Ti  22    4.683634    0.061298    2.956071     12.00      47.8670
      22     1 Ti  22    6.996132    2.373654    4.445593     12.00      47.8670
      23     1 Ti  22    9.306236    0.060632    2.955818     12.00      47.8670
      24     1 Ti  22   11.619264    2.372890    4.446448     12.00      47.8670
      25     1 Ti  22    0.061298    4.683634    2.956071     12.00      47.8670
      26     1 Ti  22    2.373654    6.996132    4.445593     12.00      47.8670
      27     1 Ti  22    4.684220    4.684220    2.955791     12.00      47.8670
      28     1 Ti  22    6.996393    6.996393    4.444898     12.00      47.8670
      29     1 Ti  22    9.307188    4.683933    2.955625     12.00      47.8670
      30     1 Ti  22   11.619476    6.995977    4.446056     12.00      47.8670
      31     1 Ti  22    0.060632    9.306236    2.955818     12.00      47.8670
      32     1 Ti  22    2.372890   11.619264    4.446448     12.00      47.8670
      33     1 Ti  22    4.683933    9.307188    2.955625     12.00      47.8670
      34     1 Ti  22    6.995978   11.619476    4.446056     12.00      47.8670
      35     1 Ti  22    9.306364    9.306364    2.955623     12.00      47.8670
      36     1 Ti  22   11.619178   11.619178    4.446622     12.00      47.8670
      37     1 Ti  22    0.060622    0.060622    5.933418     12.00      47.8670
      38     1 Ti  22    2.373345    2.373345    7.421798     12.00      47.8670
      39     1 Ti  22    4.683830    0.061146    5.933294     12.00      47.8670
      40     1 Ti  22    6.996178    2.373560    7.421314     12.00      47.8670
      41     1 Ti  22    9.306692    0.060796    5.933159     12.00      47.8670
      42     1 Ti  22   11.619298    2.373025    7.421995     12.00      47.8670
      43     1 Ti  22    0.061146    4.683830    5.933294     12.00      47.8670
      44     1 Ti  22    2.373561    6.996178    7.421314     12.00      47.8670
      45     1 Ti  22    4.684268    4.684267    5.933062     12.00      47.8670
      46     1 Ti  22    6.996174    6.996173    7.420699     12.00      47.8670
      47     1 Ti  22    9.307301    4.683967    5.932874     12.00      47.8670
      48     1 Ti  22   11.619524    6.996101    7.421670     12.00      47.8670
      49     1 Ti  22    0.060796    9.306692    5.933159     12.00      47.8670
      50     1 Ti  22    2.373026   11.619298    7.421995     12.00      47.8670
      51     1 Ti  22    4.683967    9.307301    5.932874     12.00      47.8670
      52     1 Ti  22    6.996101   11.619524    7.421670     12.00      47.8670
      53     1 Ti  22    9.306635    9.306635    5.932826     12.00      47.8670
      54     1 Ti  22   11.619102   11.619102    7.422158     12.00      47.8670
      55     1 Ti  22    0.060644    0.060644    8.908785     12.00      47.8670
      56     1 Ti  22    2.373508    2.373508   10.398591     12.00      47.8670
      57     1 Ti  22    4.683882    0.061073    8.908834     12.00      47.8670
      58     1 Ti  22    6.996323    2.373714   10.398315     12.00      47.8670
      59     1 Ti  22    9.306623    0.060955    8.908686     12.00      47.8670
      60     1 Ti  22   11.619465    2.373073   10.398645     12.00      47.8670
      61     1 Ti  22    0.061073    4.683882    8.908834     12.00      47.8670
      62     1 Ti  22    2.373714    6.996323   10.398315     12.00      47.8670
      63     1 Ti  22    4.684264    4.684264    8.908608     12.00      47.8670
      64     1 Ti  22    6.996550    6.996550   10.397792     12.00      47.8670
      65     1 Ti  22    9.307260    4.684224    8.908551     12.00      47.8670
      66     1 Ti  22   11.619704    6.996201   10.398568     12.00      47.8670
      67     1 Ti  22    0.060956    9.306622    8.908686     12.00      47.8670
      68     1 Ti  22    2.373073   11.619465   10.398645     12.00      47.8670
      69     1 Ti  22    4.684224    9.307259    8.908551     12.00      47.8670
      70     1 Ti  22    6.996201   11.619704   10.398568     12.00      47.8670
      71     1 Ti  22    9.306804    9.306803    8.908271     12.00      47.8670
      72     1 Ti  22   11.619057   11.619056   10.398889     12.00      47.8670
      73     1 Ti  22    0.060456    0.060456   11.888814     12.00      47.8670
      74     1 Ti  22    2.372640    2.372640   13.383201     12.00      47.8670
      75     1 Ti  22    4.683221    0.060762   11.889244     12.00      47.8670
      76     1 Ti  22    6.995841    2.373145   13.382988     12.00      47.8670
      77     1 Ti  22    9.306774    0.061014   11.888932     12.00      47.8670
      78     1 Ti  22   11.619152    2.372545   13.383307     12.00      47.8670
      79     1 Ti  22    0.060763    4.683221   11.889244     12.00      47.8670
      80     1 Ti  22    2.373146    6.995841   13.382988     12.00      47.8670
      81     1 Ti  22    4.683903    4.683902   11.889308     12.00      47.8670
      82     1 Ti  22    6.996261    6.996261   13.382662     12.00      47.8670
      83     1 Ti  22    9.307213    4.684063   11.889199     12.00      47.8670
      84     1 Ti  22   11.619297    6.996211   13.383178     12.00      47.8670
      85     1 Ti  22    0.061014    9.306774   11.888932     12.00      47.8670
      86     1 Ti  22    2.372545   11.619151   13.383307     12.00      47.8670
      87     1 Ti  22    4.684064    9.307213   11.889199     12.00      47.8670
      88     1 Ti  22    6.996212   11.619296   13.383178     12.00      47.8670
      89     1 Ti  22    9.307104    9.307104   11.888912     12.00      47.8670
      90     1 Ti  22   11.619282   11.619282   13.383221     12.00      47.8670
      91     2 O    8    1.473565    1.473565   -0.028614      6.00      15.9994
      92     2 O    8    3.277777    3.277777   -0.025446      6.00      15.9994
      93     2 O    8    0.965810    3.784979    1.468107      6.00      15.9994
      94     2 O    8    3.784979    0.965810    1.468107      6.00      15.9994
      95     2 O    8    6.096709    1.473837   -0.025882      6.00      15.9994
      96     2 O    8    7.901067    3.277822   -0.025726      6.00      15.9994
      97     2 O    8    5.588803    3.784982    1.468832      6.00      15.9994
      98     2 O    8    8.408455    0.965900    1.467849      6.00      15.9994
      99     2 O    8   10.720044    1.473787   -0.028315      6.00      15.9994
     100     2 O    8   12.524197    3.277917   -0.026788      6.00      15.9994
     101     2 O    8   10.211960    3.785164    1.468060      6.00      15.9994
     102     2 O    8   13.030941    0.965611    1.466626      6.00      15.9994
     103     2 O    8    1.473838    6.096708   -0.025882      6.00      15.9994
     104     2 O    8    3.277822    7.901067   -0.025726      6.00      15.9994
     105     2 O    8    0.965900    8.408455    1.467849      6.00      15.9994
     106     2 O    8    3.784982    5.588803    1.468832      6.00      15.9994
     107     2 O    8    6.096593    6.096593   -0.024720      6.00      15.9994
     108     2 O    8    7.901121    7.901121   -0.025416      6.00      15.9994
     109     2 O    8    5.588992    8.408097    1.468516      6.00      15.9994
     110     2 O    8    8.408097    5.588991    1.468516      6.00      15.9994
     111     2 O    8   10.719881    6.096759   -0.025912      6.00      15.9994
     112     2 O    8   12.524114    7.901048   -0.026123      6.00      15.9994
     113     2 O    8   10.211933    8.408242    1.468390      6.00      15.9994
     114     2 O    8   13.030891    5.588836    1.468074      6.00      15.9994
     115     2 O    8    1.473787   10.720044   -0.028315      6.00      15.9994
     116     2 O    8    3.277917   12.524197   -0.026788      6.00      15.9994
     117     2 O    8    0.965612   13.030940    1.466626      6.00      15.9994
     118     2 O    8    3.785164   10.211960    1.468060      6.00      15.9994
     119     2 O    8    6.096759   10.719881   -0.025912      6.00      15.9994
     120     2 O    8    7.901048   12.524114   -0.026123      6.00      15.9994
     121     2 O    8    5.588836   13.030891    1.468073      6.00      15.9994
     122     2 O    8    8.408242   10.211933    1.468390      6.00      15.9994
     123     2 O    8   10.720118   10.720118   -0.026134      6.00      15.9994
     124     2 O    8   12.524375   12.524375   -0.030325      6.00      15.9994
     125     2 O    8   10.212199   13.031177    1.467278      6.00      15.9994
     126     2 O    8   13.031177   10.212199    1.467278      6.00      15.9994
     127     2 O    8    1.473663    1.473663    2.959043      6.00      15.9994
     128     2 O    8    3.277498    3.277498    2.958945      6.00      15.9994
     129     2 O    8    0.965825    3.785009    4.447969      6.00      15.9994
     130     2 O    8    3.785009    0.965825    4.447969      6.00      15.9994
     131     2 O    8    6.096975    1.473865    2.959352      6.00      15.9994
     132     2 O    8    7.900858    3.277659    2.959486      6.00      15.9994
     133     2 O    8    5.588985    3.785077    4.448182      6.00      15.9994
     134     2 O    8    8.408405    0.966003    4.447863      6.00      15.9994
     135     2 O    8   10.720244    1.474045    2.958905      6.00      15.9994
     136     2 O    8   12.523781    3.277799    2.958781      6.00      15.9994
     137     2 O    8   10.211919    3.785187    4.448078      6.00      15.9994
     138     2 O    8   13.031005    0.965821    4.447742      6.00      15.9994
     139     2 O    8    1.473865    6.096975    2.959352      6.00      15.9994
     140     2 O    8    3.277659    7.900858    2.959486      6.00      15.9994
     141     2 O    8    0.966003    8.408405    4.447863      6.00      15.9994
     142     2 O    8    3.785077    5.588985    4.448182      6.00      15.9994
     143     2 O    8    6.096789    6.096789    2.959526      6.00      15.9994
     144     2 O    8    7.900906    7.900906    2.959701      6.00      15.9994
     145     2 O    8    5.589108    8.408051    4.448051      6.00      15.9994
     146     2 O    8    8.408051    5.589107    4.448051      6.00      15.9994
     147     2 O    8   10.719917    6.097017    2.959272      6.00      15.9994
     148     2 O    8   12.523959    7.900967    2.959262      6.00      15.9994
     149     2 O    8   10.211942    8.408125    4.448078      6.00      15.9994
     150     2 O    8   13.031062    5.589061    4.447946      6.00      15.9994
     151     2 O    8    1.474045   10.720244    2.958905      6.00      15.9994
     152     2 O    8    3.277799   12.523781    2.958781      6.00      15.9994
     153     2 O    8    0.965822   13.031005    4.447742      6.00      15.9994
     154     2 O    8    3.785187   10.211919    4.448078      6.00      15.9994
     155     2 O    8    6.097017   10.719917    2.959272      6.00      15.9994
     156     2 O    8    7.900967   12.523959    2.959262      6.00      15.9994
     157     2 O    8    5.589061   13.031062    4.447946      6.00      15.9994
     158     2 O    8    8.408125   10.211942    4.448078      6.00      15.9994
     159     2 O    8   10.720453   10.720453    2.958631      6.00      15.9994
     160     2 O    8   12.524106   12.524106    2.958514      6.00      15.9994
     161     2 O    8   10.211739   13.030819    4.447910      6.00      15.9994
     162     2 O    8   13.030820   10.211739    4.447910      6.00      15.9994
     163     2 O    8    1.473800    1.473800    5.935233      6.00      15.9994
     164     2 O    8    3.277659    3.277658    5.935227      6.00      15.9994
     165     2 O    8    0.965880    3.785105    7.422463      6.00      15.9994
     166     2 O    8    3.785105    0.965880    7.422463      6.00      15.9994
     167     2 O    8    6.096656    1.474036    5.935371      6.00      15.9994
     168     2 O    8    7.900806    3.277785    5.935358      6.00      15.9994
     169     2 O    8    5.589096    3.785066    7.422527      6.00      15.9994
     170     2 O    8    8.408218    0.966076    7.422445      6.00      15.9994
     171     2 O    8   10.719964    1.474036    5.935185      6.00      15.9994
     172     2 O    8   12.523940    3.277948    5.935210      6.00      15.9994
     173     2 O    8   10.211924    3.785275    7.422537      6.00      15.9994
     174     2 O    8   13.030939    0.965984    7.422346      6.00      15.9994
     175     2 O    8    1.474036    6.096656    5.935371      6.00      15.9994
     176     2 O    8    3.277785    7.900806    5.935358      6.00      15.9994
     177     2 O    8    0.966076    8.408218    7.422445      6.00      15.9994
     178     2 O    8    3.785066    5.589096    7.422527      6.00      15.9994
     179     2 O    8    6.096658    6.096658    5.935433      6.00      15.9994
     180     2 O    8    7.900859    7.900859    5.935446      6.00      15.9994
     181     2 O    8    5.589204    8.407897    7.422516      6.00      15.9994
     182     2 O    8    8.407897    5.589203    7.422516      6.00      15.9994
     183     2 O    8   10.719876    6.096889    5.935291      6.00      15.9994
     184     2 O    8   12.523865    7.900742    5.935328      6.00      15.9994
     185     2 O    8   10.211967    8.407934    7.422486      6.00      15.9994
     186     2 O    8   13.031002    5.589186    7.422428      6.00      15.9994
     187     2 O    8    1.474036   10.719964    5.935185      6.00      15.9994
     188     2 O    8    3.277948   12.523940    5.935210      6.00      15.9994
     189     2 O    8    0.965984   13.030939    7.422346      6.00      15.9994
     190     2 O    8    3.785275   10.211924    7.422537      6.00      15.9994
     191     2 O    8    6.096889   10.719876    5.935291      6.00      15.9994
     192     2 O    8    7.900743   12.523865    5.935328      6.00      15.9994
     193     2 O    8    5.589186   13.031002    7.422428      6.00      15.9994
     194     2 O    8    8.407934   10.211967    7.422486      6.00      15.9994
     195     2 O    8   10.720184   10.720184    5.935098      6.00      15.9994
     196     2 O    8   12.524025   12.524025    5.935147      6.00      15.9994
     197     2 O    8   10.211679   13.030754    7.422409      6.00      15.9994
     198     2 O    8   13.030754   10.211679    7.422409      6.00      15.9994
     199     2 O    8    1.474057    1.474057    8.909592      6.00      15.9994
     200     2 O    8    3.277799    3.277799    8.909707      6.00      15.9994
     201     2 O    8    0.965922    3.785304   10.398218      6.00      15.9994
     202     2 O    8    3.785304    0.965922   10.398218      6.00      15.9994
     203     2 O    8    6.096864    1.474118    8.909708      6.00      15.9994
     204     2 O    8    7.900811    3.277753    8.909775      6.00      15.9994
     205     2 O    8    5.588935    3.785202   10.398534      6.00      15.9994
     206     2 O    8    8.408180    0.966133   10.398034      6.00      15.9994
     207     2 O    8   10.720050    1.474195    8.909465      6.00      15.9994
     208     2 O    8   12.523882    3.278008    8.909509      6.00      15.9994
     209     2 O    8   10.211802    3.785505   10.398365      6.00      15.9994
     210     2 O    8   13.030918    0.965982   10.397631      6.00      15.9994
     211     2 O    8    1.474118    6.096864    8.909708      6.00      15.9994
     212     2 O    8    3.277753    7.900811    8.909775      6.00      15.9994
     213     2 O    8    0.966134    8.408180   10.398034      6.00      15.9994
     214     2 O    8    3.785202    5.588935   10.398534      6.00      15.9994
     215     2 O    8    6.096726    6.096726    8.909923      6.00      15.9994
     216     2 O    8    7.900808    7.900808    8.909952      6.00      15.9994
     217     2 O    8    5.589206    8.407861   10.398522      6.00      15.9994
     218     2 O    8    8.407862    5.589206   10.398522      6.00      15.9994
     219     2 O    8   10.719911    6.096901    8.909710      6.00      15.9994
     220     2 O    8   12.523835    7.900689    8.909716      6.00      15.9994
     221     2 O    8   10.211827    8.408121   10.398380      6.00      15.9994
     222     2 O    8   13.030935    5.589171   10.398106      6.00      15.9994
     223     2 O    8    1.474195   10.720050    8.909465      6.00      15.9994
     224     2 O    8    3.278008   12.523882    8.909509      6.00      15.9994
     225     2 O    8    0.965982   13.030918   10.397631      6.00      15.9994
     226     2 O    8    3.785505   10.211802   10.398365      6.00      15.9994
     227     2 O    8    6.096901   10.719911    8.909710      6.00      15.9994
     228     2 O    8    7.900689   12.523835    8.909716      6.00      15.9994
     229     2 O    8    5.589171   13.030935   10.398106      6.00      15.9994
     230     2 O    8    8.408121   10.211827   10.398380      6.00      15.9994
     231     2 O    8   10.720145   10.720145    8.909489      6.00      15.9994
     232     2 O    8   12.523869   12.523869    8.909533      6.00      15.9994
     233     2 O    8   10.211670   13.031009   10.398003      6.00      15.9994
     234     2 O    8   13.031009   10.211670   10.398003      6.00      15.9994
     235     2 O    8    1.474323    1.474323   11.888450      6.00      15.9994
     236     2 O    8    3.277930    3.277930   11.888868      6.00      15.9994
     237     2 O    8    0.966134    3.785289   13.382372      6.00      15.9994
     238     2 O    8    3.785289    0.966134   13.382371      6.00      15.9994
     239     2 O    8    6.097130    1.474075   11.889238      6.00      15.9994
     240     2 O    8    7.900637    3.277870   11.889340      6.00      15.9994
     241     2 O    8    5.589243    3.784950   13.384294      6.00      15.9994
     242     2 O    8    8.407932    0.966082   13.382671      6.00      15.9994
     243     2 O    8   10.720100    1.474394   11.888457      6.00      15.9994
     244     2 O    8   12.523713    3.278245   11.888353      6.00      15.9994
     245     2 O    8   10.211885    3.785179   13.382748      6.00      15.9994
     246     2 O    8   13.030959    0.966274   13.380410      6.00      15.9994
     247     2 O    8    1.474075    6.097130   11.889238      6.00      15.9994
     248     2 O    8    3.277870    7.900637   11.889340      6.00      15.9994
     249     2 O    8    0.966082    8.407932   13.382671      6.00      15.9994
     250     2 O    8    3.784951    5.589243   13.384294      6.00      15.9994
     251     2 O    8    6.096725    6.096725   11.890052      6.00      15.9994
     252     2 O    8    7.900770    7.900769   11.889675      6.00      15.9994
     253     2 O    8    5.589360    8.407681   13.384073      6.00      15.9994
     254     2 O    8    8.407682    5.589360   13.384073      6.00      15.9994
     255     2 O    8   10.719789    6.097190   11.889497      6.00      15.9994
     256     2 O    8   12.523705    7.900538   11.888938      6.00      15.9994
     257     2 O    8   10.212157    8.408029   13.383454      6.00      15.9994
     258     2 O    8   13.030586    5.589056   13.383485      6.00      15.9994
     259     2 O    8    1.474394   10.720100   11.888457      6.00      15.9994
     260     2 O    8    3.278245   12.523713   11.888353      6.00      15.9994
     261     2 O    8    0.966274   13.030959   13.380410      6.00      15.9994
     262     2 O    8    3.785179   10.211885   13.382748      6.00      15.9994
     263     2 O    8    6.097190   10.719789   11.889497      6.00      15.9994
     264     2 O    8    7.900538   12.523705   11.888938      6.00      15.9994
     265     2 O    8    5.589056   13.030586   13.383485      6.00      15.9994
     266     2 O    8    8.408029   10.212157   13.383454      6.00      15.9994
     267     2 O    8   10.720067   10.720067   11.888254      6.00      15.9994
     268     2 O    8   12.523757   12.523757   11.888051      6.00      15.9994
     269     2 O    8   10.211632   13.030605   13.381409      6.00      15.9994
     270     2 O    8   13.030605   10.211631   13.381409      6.00      15.9994




 SCF PARAMETERS         Density guess:                                   RESTART
                        --------------------------------------------------------
                        max_scf:                                             500
                        max_scf_history:                                       0
                        max_diis:                                              4
                        --------------------------------------------------------
                        eps_scf:                                        1.00E-06
                        eps_scf_history:                                0.00E+00
                        eps_diis:                                       5.00E-01
                        eps_eigval:                                     1.00E-05
                        --------------------------------------------------------
                        level_shift [a.u.]:                                 0.00
                        --------------------------------------------------------
                        Mixing method:                            BROYDEN_MIXING
                                                charge density mixing in g-space
                        --------------------------------------------------------
                        Outer loop SCF in use 
                        No variables optimised in outer loop
                        eps_scf                                         1.00E-06
                        max_scf                                              500
                        No outer loop optimization
                        step_size                                       5.00E-01

 PW_GRID| Information for grid number                                          1
 PW_GRID| Grid distributed over                                   128 processors
 PW_GRID| Real space group dimensions                                   128    1
 PW_GRID| the grid is blocked:                                                NO
 PW_GRID| Cutoff [a.u.]                                                    325.0
 PW_GRID| spherical cutoff:                                                   NO
 PW_GRID|   Bounds   1           -108     107                Points:         216
 PW_GRID|   Bounds   2           -108     107                Points:         216
 PW_GRID|   Bounds   3           -115     115                Points:         231
 PW_GRID| Volume element (a.u.^3)  0.1795E-02     Volume (a.u.^3)     19349.8300
 PW_GRID| Grid span                                                    FULLSPACE
 PW_GRID|   Distribution                         Average         Max         Min
 PW_GRID|   G-Vectors                            84199.5       84240       84024
 PW_GRID|   G-Rays                                 389.8         390         389
 PW_GRID|   Real Space Points                    84199.5       99792       49896

 PW_GRID| Information for grid number                                          2
 PW_GRID| Grid distributed over                                   128 processors
 PW_GRID| Real space group dimensions                                     8   16
 PW_GRID| the grid is blocked:                                                NO
 PW_GRID| Cutoff [a.u.]                                                    108.3
 PW_GRID| spherical cutoff:                                                   NO
 PW_GRID|   Bounds   1            -63      62                Points:         126
 PW_GRID|   Bounds   2            -63      62                Points:         126
 PW_GRID|   Bounds   3            -66      65                Points:         132
 PW_GRID| Volume element (a.u.^3)  0.9233E-02     Volume (a.u.^3)     19349.8300
 PW_GRID| Grid span                                                    FULLSPACE
 PW_GRID|   Distribution                         Average         Max         Min
 PW_GRID|   G-Vectors                            16372.1       16758       16002
 PW_GRID|   G-Rays                                 129.9         133         127
 PW_GRID|   Real Space Points                    16372.1       16896       13860

 PW_GRID| Information for grid number                                          3
 PW_GRID| Grid distributed over                                   128 processors
 PW_GRID| Real space group dimensions                                     8   16
 PW_GRID| the grid is blocked:                                                NO
 PW_GRID| Cutoff [a.u.]                                                     36.1
 PW_GRID| spherical cutoff:                                                   NO
 PW_GRID|   Bounds   1            -36      35                Points:          72
 PW_GRID|   Bounds   2            -36      35                Points:          72
 PW_GRID|   Bounds   3            -38      38                Points:          77
 PW_GRID| Volume element (a.u.^3)  0.4848E-01     Volume (a.u.^3)     19349.8300
 PW_GRID| Grid span                                                    FULLSPACE
 PW_GRID|   Distribution                         Average         Max         Min
 PW_GRID|   G-Vectors                             3118.5        3168        3024
 PW_GRID|   G-Rays                                  43.3          44          42
 PW_GRID|   Real Space Points                     3118.5        3465        2772

 PW_GRID| Information for grid number                                          4
 PW_GRID| Grid distributed over                                   128 processors
 PW_GRID| Real space group dimensions                                     8   16
 PW_GRID| the grid is blocked:                                                NO
 PW_GRID| Cutoff [a.u.]                                                     12.0
 PW_GRID| spherical cutoff:                                                   NO
 PW_GRID|   Bounds   1            -21      20                Points:          42
 PW_GRID|   Bounds   2            -21      20                Points:          42
 PW_GRID|   Bounds   3            -22      21                Points:          44
 PW_GRID| Volume element (a.u.^3)  0.2493         Volume (a.u.^3)     19349.8300
 PW_GRID| Grid span                                                    FULLSPACE
 PW_GRID|   Distribution                         Average         Max         Min
 PW_GRID|   G-Vectors                              606.4         672         546
 PW_GRID|   G-Rays                                  14.4          16          13
 PW_GRID|   Real Space Points                      606.4         792         440

 PW_GRID| Information for grid number                                          5
 PW_GRID| Grid distributed over                                   128 processors
 PW_GRID| Real space group dimensions                                     8   16
 PW_GRID| the grid is blocked:                                                NO
 PW_GRID| Cutoff [a.u.]                                                      4.0
 PW_GRID| spherical cutoff:                                                   NO
 PW_GRID|   Bounds   1            -12      11                Points:          24
 PW_GRID|   Bounds   2            -12      11                Points:          24
 PW_GRID|   Bounds   3            -12      12                Points:          25
 PW_GRID| Volume element (a.u.^3)   1.344         Volume (a.u.^3)     19349.8300
 PW_GRID| Grid span                                                    FULLSPACE
 PW_GRID|   Distribution                         Average         Max         Min
 PW_GRID|   G-Vectors                              112.5         144          96
 PW_GRID|   G-Rays                                   4.7           6           4
 PW_GRID|   Real Space Points                      112.5         150          75

 PW_GRID| Information for grid number                                          6
 PW_GRID| Grid distributed over                                   128 processors
 PW_GRID| Real space group dimensions                                     8   16
 PW_GRID| the grid is blocked:                                                NO
 PW_GRID| Cutoff [a.u.]                                                      1.3
 PW_GRID| spherical cutoff:                                                   NO
 PW_GRID|   Bounds   1             -7       6                Points:          14
 PW_GRID|   Bounds   2             -7       6                Points:          14
 PW_GRID|   Bounds   3             -7       7                Points:          15
 PW_GRID| Volume element (a.u.^3)   6.582         Volume (a.u.^3)     19349.8300
 PW_GRID| Grid span                                                    FULLSPACE
 PW_GRID|   Distribution                         Average         Max         Min
 PW_GRID|   G-Vectors                               23.0          42          14
 PW_GRID|   G-Rays                                   1.6           3           1
 PW_GRID|   Real Space Points                       23.0          30           0

 PW_GRID| Information for grid number                                          7
 PW_GRID| Grid distributed over                                   128 processors
 PW_GRID| Real space group dimensions                                     8   16
 PW_GRID| the grid is blocked:                                                NO
 PW_GRID| Cutoff [a.u.]                                                      0.4
 PW_GRID| spherical cutoff:                                                   NO
 PW_GRID|   Bounds   1             -3       3                Points:           7
 PW_GRID|   Bounds   2             -3       3                Points:           7
 PW_GRID|   Bounds   3             -4       4                Points:           9
 PW_GRID| Volume element (a.u.^3)   43.88         Volume (a.u.^3)     19349.8300
 PW_GRID| Grid span                                                    FULLSPACE
 PW_GRID|   Distribution                         Average         Max         Min
 PW_GRID|   G-Vectors                                3.4           7           0
 PW_GRID|   G-Rays                                   0.5           1           0
 PW_GRID|   Real Space Points                        3.4           9           0

 PW_GRID| Information for grid number                                          8
 PW_GRID| Grid distributed over                                   128 processors
 PW_GRID| Real space group dimensions                                     8   16
 PW_GRID| the grid is blocked:                                                NO
 PW_GRID| Cutoff [a.u.]                                                      0.1
 PW_GRID| spherical cutoff:                                                   NO
 PW_GRID|   Bounds   1             -2       2                Points:           5
 PW_GRID|   Bounds   2             -2       2                Points:           5
 PW_GRID|   Bounds   3             -2       2                Points:           5
 PW_GRID| Volume element (a.u.^3)   154.8         Volume (a.u.^3)     19349.8300
 PW_GRID| Grid span                                                    FULLSPACE
 PW_GRID|   Distribution                         Average         Max         Min
 PW_GRID|   G-Vectors                                1.0           5           0
 PW_GRID|   G-Rays                                   0.2           1           0
 PW_GRID|   Real Space Points                        1.0           5           0

 PW_GRID| Information for grid number                                          9
 PW_GRID| Grid distributed over                                   128 processors
 PW_GRID| Real space group dimensions                                     8   16
 PW_GRID| the grid is blocked:                                                NO
 PW_GRID| Cutoff [a.u.]                                                      0.0
 PW_GRID| spherical cutoff:                                                   NO
 PW_GRID|   Bounds   1             -1       1                Points:           3
 PW_GRID|   Bounds   2             -1       1                Points:           3
 PW_GRID|   Bounds   3             -1       1                Points:           3
 PW_GRID| Volume element (a.u.^3)   716.7         Volume (a.u.^3)     19349.8300
 PW_GRID| Grid span                                                    FULLSPACE
 PW_GRID|   Distribution                         Average         Max         Min
 PW_GRID|   G-Vectors                                0.2           3           0
 PW_GRID|   G-Rays                                   0.1           1           0
 PW_GRID|   Real Space Points                        0.2           3           0

 PW_GRID| Information for grid number                                         10
 PW_GRID| Grid distributed over                                   128 processors
 PW_GRID| Real space group dimensions                                     8   16
 PW_GRID| the grid is blocked:                                                NO
 PW_GRID| Cutoff [a.u.]                                                      0.0
 PW_GRID| spherical cutoff:                                                   NO
 PW_GRID|   Bounds   1              0       0                Points:           1
 PW_GRID|   Bounds   2              0       0                Points:           1
 PW_GRID|   Bounds   3              0       0                Points:           1
 PW_GRID| Volume element (a.u.^3)  0.1935E+05     Volume (a.u.^3)     19349.8300
 PW_GRID| Grid span                                                    FULLSPACE
 PW_GRID|   Distribution                         Average         Max         Min
 PW_GRID|   G-Vectors                                0.0           1           0
 PW_GRID|   G-Rays                                   0.0           1           0
 PW_GRID|   Real Space Points                        0.0           1           0

 POISSON| Solver                                                        PERIODIC
 POISSON| Periodicity                                                        XYZ

 RS_GRID| Information for grid number                                          1
 RS_GRID|   Bounds   1           -108     107                Points:         216
 RS_GRID|   Bounds   2           -108     107                Points:         216
 RS_GRID|   Bounds   3           -115     115                Points:         231
 RS_GRID| Real space distribution over                                  4 groups
 RS_GRID| Real space distribution along direction                              1
 RS_GRID| Border size                                                         27
 RS_GRID| Real space distribution over                                  4 groups
 RS_GRID| Real space distribution along direction                              2
 RS_GRID| Border size                                                         27
 RS_GRID| Real space distribution over                                  8 groups
 RS_GRID| Real space distribution along direction                              3
 RS_GRID| Border size                                                         27
 RS_GRID|   Distribution                         Average         Max         Min
 RS_GRID|   Planes                                 108.0         108         108
 RS_GRID|   Distribution                         Average         Max         Min
 RS_GRID|   Planes                                 108.0         108         108
 RS_GRID|   Distribution                         Average         Max         Min
 RS_GRID|   Planes                                  82.9          83          82

 RS_GRID| Information for grid number                                          2
 RS_GRID|   Bounds   1            -63      62                Points:         126
 RS_GRID|   Bounds   2            -63      62                Points:         126
 RS_GRID|   Bounds   3            -66      65                Points:         132
 RS_GRID| Real space distribution over                                  4 groups
 RS_GRID| Real space distribution along direction                              1
 RS_GRID| Border size                                                         26
 RS_GRID| Real space distribution over                                  4 groups
 RS_GRID| Real space distribution along direction                              2
 RS_GRID| Border size                                                         26
 RS_GRID| Real space distribution over                                  8 groups
 RS_GRID| Real space distribution along direction                              3
 RS_GRID| Border size                                                         26
 RS_GRID|   Distribution                         Average         Max         Min
 RS_GRID|   Planes                                  83.5          84          83
 RS_GRID|   Distribution                         Average         Max         Min
 RS_GRID|   Planes                                  83.5          84          83
 RS_GRID|   Distribution                         Average         Max         Min
 RS_GRID|   Planes                                  68.5          69          68

 RS_GRID| Information for grid number                                          3
 RS_GRID|   Bounds   1            -36      35                Points:          72
 RS_GRID|   Bounds   2            -36      35                Points:          72
 RS_GRID|   Bounds   3            -38      38                Points:          77
 RS_GRID| Real space fully replicated
 RS_GRID| Group size                                                           1

 RS_GRID| Information for grid number                                          4
 RS_GRID|   Bounds   1            -21      20                Points:          42
 RS_GRID|   Bounds   2            -21      20                Points:          42
 RS_GRID|   Bounds   3            -22      21                Points:          44
 RS_GRID| Real space fully replicated
 RS_GRID| Group size                                                           1

 RS_GRID| Information for grid number                                          5
 RS_GRID|   Bounds   1            -12      11                Points:          24
 RS_GRID|   Bounds   2            -12      11                Points:          24
 RS_GRID|   Bounds   3            -12      12                Points:          25
 RS_GRID| Real space fully replicated
 RS_GRID| Group size                                                           1

 RS_GRID| Information for grid number                                          6
 RS_GRID|   Bounds   1             -7       6                Points:          14
 RS_GRID|   Bounds   2             -7       6                Points:          14
 RS_GRID|   Bounds   3             -7       7                Points:          15
 RS_GRID| Real space fully replicated
 RS_GRID| Group size                                                           1

 RS_GRID| Information for grid number                                          7
 RS_GRID|   Bounds   1             -3       3                Points:           7
 RS_GRID|   Bounds   2             -3       3                Points:           7
 RS_GRID|   Bounds   3             -4       4                Points:           9
 RS_GRID| Real space fully replicated
 RS_GRID| Group size                                                           1

 RS_GRID| Information for grid number                                          8
 RS_GRID|   Bounds   1             -2       2                Points:           5
 RS_GRID|   Bounds   2             -2       2                Points:           5
 RS_GRID|   Bounds   3             -2       2                Points:           5
 RS_GRID| Real space fully replicated
 RS_GRID| Group size                                                           1

 RS_GRID| Information for grid number                                          9
 RS_GRID|   Bounds   1             -1       1                Points:           3
 RS_GRID|   Bounds   2             -1       1                Points:           3
 RS_GRID|   Bounds   3             -1       1                Points:           3
 RS_GRID| Real space fully replicated
 RS_GRID| Group size                                                           1

 RS_GRID| Information for grid number                                         10
 RS_GRID|   Bounds   1              0       0                Points:           1
 RS_GRID|   Bounds   2              0       0                Points:           1
 RS_GRID|   Bounds   3              0       0                Points:           1
 RS_GRID| Real space fully replicated
 RS_GRID| Group size                                                           1

 Spin 1

 Number of electrons:                                                       1080
 Number of occupied orbitals:                                               1080
 Number of molecular orbitals:                                              1080

 Spin 2

 Number of electrons:                                                       1080
 Number of occupied orbitals:                                               1080
 Number of molecular orbitals:                                              1080

 Number of orbital functions:                                               1620
 Number of independent orbital functions:                                   1620

 Extrapolation method: initial_guess


 SCF WAVEFUNCTION OPTIMIZATION

  Step     Update method      Time    Convergence         Total energy    Change
  ------------------------------------------------------------------------------
     1 NoMix/Diag. 0.40E+00    3.4     0.04021981     -8102.8070644129 -8.10E+03
     2 Broy./Diag. 0.40E+00    4.0     0.03242207     -8095.7686698445  7.04E+00
     3 Broy./Diag. 0.40E+00    3.9     0.00510293     -8096.7935653748 -1.02E+00
     4 Broy./Diag. 0.40E+00    3.9     0.04266993     -8106.5446594866 -9.75E+00
     5 Broy./Diag. 0.40E+00    3.6     0.02426224     -8104.4510332350  2.09E+00
     6 Broy./Diag. 0.40E+00    3.4     0.01517964     -8103.2678999177  1.18E+00
     7 Broy./Diag. 0.40E+00    3.9     0.00237114     -8103.4355101180 -1.68E-01
     8 Broy./Diag. 0.40E+00    3.7     0.00316061     -8103.9015993609 -4.66E-01
     9 Broy./Diag. 0.40E+00    3.5     0.00132246     -8103.9253104571 -2.37E-02
    10 Broy./Diag. 0.40E+00    4.3     0.00056482     -8103.7269808572  1.98E-01
    11 Broy./Diag. 0.40E+00    3.7     0.00017666     -8103.5735300327  1.53E-01
    12 Broy./Diag. 0.40E+00    3.7     0.00042293     -8103.5619089326  1.16E-02
    13 Broy./Diag. 0.40E+00    3.7     0.00007412     -8103.5512038649  1.07E-02
    14 Broy./Diag. 0.40E+00    3.6     0.00026469     -8103.5470363935  4.17E-03
    15 Broy./Diag. 0.40E+00    3.8     0.00003539     -8103.5390831816  7.95E-03
    16 Broy./Diag. 0.40E+00    3.6     0.00001960     -8103.5440350215 -4.95E-03
    17 Broy./Diag. 0.40E+00    3.6     0.00000323     -8103.5453558242 -1.32E-03
    18 Broy./Diag. 0.40E+00    3.7     0.00003287     -8103.5423329850  3.02E-03
    19 Broy./Diag. 0.40E+00    3.8     0.00005080     -8103.5386390831  3.69E-03
    20 Broy./Diag. 0.40E+00    3.6     0.00000767     -8103.5391008808 -4.62E-04
    21 Broy./Diag. 0.40E+00    3.5     0.00003112     -8103.5393036777 -2.03E-04
    22 Broy./Diag. 0.40E+00    3.6     0.00000395     -8103.5382030152  1.10E-03
    23 Broy./Diag. 0.40E+00    4.0     0.00001173     -8103.5379992441  2.04E-04
    24 Broy./Diag. 0.40E+00    3.6     0.00000116     -8103.5381988721 -2.00E-04
    25 Broy./Diag. 0.40E+00    3.6     0.00000457     -8103.5382381199 -3.92E-05
    26 Broy./Diag. 0.40E+00    3.6     0.00000193     -8103.5378942389  3.44E-04
    27 Broy./Diag. 0.40E+00    4.0     0.00000035     -8103.5380687863 -1.75E-04

  *** SCF run converged in    27 steps ***


  Electronic density on regular grids:      -2159.9999999994        0.0000000006
  Core density on regular grids:             2159.9999999994       -0.0000000006
  Total charge density on r-space grids:       -0.0000000000
  Total charge density g-space grids:          -0.0000000000

  Overlap energy of the core charge distribution:               0.00000000000190
  Self energy of the core charge distribution:             -17095.63438313942970
  Core Hamiltonian energy:                                   4659.92582456013588
  Hartree energy:                                            5613.01698021949869
  Exchange-correlation energy:                              -1308.54582810283341

  DFT+U energy:                                                27.69933767636245

  Total energy:                                             -8103.53806878626256

  outer SCF iter =    1 RMS gradient =   0.35E-06 energy =      -8103.5380687863
  outer SCF loop converged in   1 iterations or   27 steps


  Integrated absolute spin density  :                               0.0000000000
  Ideal and single determinant S**2 :                    0.000000       0.000000

 !-----------------------------------------------------------------------------!
                     Mulliken Population Analysis

 #  Atom  Element  Kind  Atomic population (alpha,beta) Net charge  Spin moment
       1     Ti       1         5.257758     5.257758     1.484484    -0.000000
       2     Ti       1         5.257735     5.257735     1.484531     0.000000
       3     Ti       1         5.257776     5.257776     1.484448     0.000000
       4     Ti       1         5.257720     5.257720     1.484560     0.000000
       5     Ti       1         5.257795     5.257795     1.484411    -0.000000
       6     Ti       1         5.257714     5.257714     1.484571    -0.000000
       7     Ti       1         5.257776     5.257776     1.484448     0.000000
       8     Ti       1         5.257720     5.257720     1.484560    -0.000000
       9     Ti       1         5.257759     5.257759     1.484482     0.000000
      10     Ti       1         5.257701     5.257701     1.484597    -0.000000
      11     Ti       1         5.257796     5.257796     1.484409     0.000000
      12     Ti       1         5.257692     5.257692     1.484617     0.000000
      13     Ti       1         5.257795     5.257795     1.484411    -0.000000
      14     Ti       1         5.257714     5.257714     1.484571     0.000000
      15     Ti       1         5.257796     5.257796     1.484409    -0.000000
      16     Ti       1         5.257692     5.257692     1.484617    -0.000000
      17     Ti       1         5.257796     5.257796     1.484407    -0.000000
      18     Ti       1         5.257716     5.257716     1.484567     0.000000
      19     Ti       1         5.257655     5.257655     1.484690    -0.000000
      20     Ti       1         5.257718     5.257718     1.484564     0.000000
      21     Ti       1         5.257661     5.257661     1.484679     0.000000
      22     Ti       1         5.257707     5.257707     1.484586     0.000000
      23     Ti       1         5.257666     5.257666     1.484669     0.000000
      24     Ti       1         5.257707     5.257707     1.484585    -0.000000
      25     Ti       1         5.257661     5.257661     1.484679    -0.000000
      26     Ti       1         5.257707     5.257707     1.484586     0.000000
      27     Ti       1         5.257654     5.257654     1.484693     0.000000
      28     Ti       1         5.257682     5.257682     1.484635    -0.000000
      29     Ti       1         5.257678     5.257678     1.484643     0.000000
      30     Ti       1         5.257671     5.257671     1.484658     0.000000
      31     Ti       1         5.257666     5.257666     1.484669    -0.000000
      32     Ti       1         5.257707     5.257707     1.484585     0.000000
      33     Ti       1         5.257678     5.257678     1.484643    -0.000000
      34     Ti       1         5.257671     5.257671     1.484658     0.000000
      35     Ti       1         5.257681     5.257681     1.484639     0.000000
      36     Ti       1         5.257685     5.257685     1.484630     0.000000
      37     Ti       1         5.257727     5.257727     1.484546     0.000000
      38     Ti       1         5.257753     5.257753     1.484495     0.000000
      39     Ti       1         5.257728     5.257728     1.484544     0.000000
      40     Ti       1         5.257734     5.257734     1.484533    -0.000000
      41     Ti       1         5.257738     5.257738     1.484524     0.000000
      42     Ti       1         5.257735     5.257735     1.484531    -0.000000
      43     Ti       1         5.257728     5.257728     1.484544    -0.000000
      44     Ti       1         5.257734     5.257734     1.484533    -0.000000
      45     Ti       1         5.257719     5.257719     1.484561     0.000000
      46     Ti       1         5.257718     5.257718     1.484563    -0.000000
      47     Ti       1         5.257739     5.257739     1.484522     0.000000
      48     Ti       1         5.257701     5.257701     1.484598    -0.000000
      49     Ti       1         5.257738     5.257738     1.484524    -0.000000
      50     Ti       1         5.257735     5.257735     1.484531    -0.000000
      51     Ti       1         5.257739     5.257739     1.484522    -0.000000
      52     Ti       1         5.257701     5.257701     1.484598    -0.000000
      53     Ti       1         5.257752     5.257752     1.484497     0.000000
      54     Ti       1         5.257730     5.257730     1.484539    -0.000000
      55     Ti       1         5.257722     5.257722     1.484557    -0.000000
      56     Ti       1         5.257676     5.257676     1.484647    -0.000000
      57     Ti       1         5.257699     5.257699     1.484602     0.000000
      58     Ti       1         5.257673     5.257673     1.484655     0.000000
      59     Ti       1         5.257717     5.257717     1.484565     0.000000
      60     Ti       1         5.257645     5.257645     1.484709     0.000000
      61     Ti       1         5.257699     5.257699     1.484602    -0.000000
      62     Ti       1         5.257673     5.257673     1.484655     0.000000
      63     Ti       1         5.257686     5.257686     1.484627    -0.000000
      64     Ti       1         5.257660     5.257660     1.484680    -0.000000
      65     Ti       1         5.257720     5.257720     1.484560    -0.000000
      66     Ti       1         5.257647     5.257647     1.484707    -0.000000
      67     Ti       1         5.257717     5.257717     1.484565     0.000000
      68     Ti       1         5.257645     5.257645     1.484709    -0.000000
      69     Ti       1         5.257720     5.257720     1.484560    -0.000000
      70     Ti       1         5.257647     5.257647     1.484707    -0.000000
      71     Ti       1         5.257725     5.257725     1.484551     0.000000
      72     Ti       1         5.257639     5.257639     1.484723    -0.000000
      73     Ti       1         5.257693     5.257693     1.484614    -0.000000
      74     Ti       1         5.257794     5.257794     1.484412    -0.000000
      75     Ti       1         5.257711     5.257711     1.484578     0.000000
      76     Ti       1         5.257781     5.257781     1.484438    -0.000000
      77     Ti       1         5.257711     5.257711     1.484578     0.000000
      78     Ti       1         5.257754     5.257754     1.484491     0.000000
      79     Ti       1         5.257711     5.257711     1.484578    -0.000000
      80     Ti       1         5.257781     5.257781     1.484438    -0.000000
      81     Ti       1         5.257698     5.257698     1.484604    -0.000000
[...]
       168  O   2s              -0.029538
       168  O   3py              0.010581
       168  O   3pz             -0.021556
       168  O   3px              0.010595
       169  O   2s              -0.021921
       170  O   2s              -0.021905
       173  O   2s              -0.011165
       182  O   2s              -0.011162
       193  O   2s              -0.010995
       202  O   2s              -0.011010
       203  O   2s              -0.806517
       203  O   3py              0.116889
       203  O   3px              0.115244
       204  O   2s              -0.817950
       204  O   3py             -0.107302
       204  O   3px             -0.106576
       205  O   2s              -0.021809
       206  O   2s              -0.021800
       209  O   2s              -0.011164
       218  O   2s              -0.011156
       219  O   2s              -0.026949
       219  O   3py              0.017185
       219  O   3px              0.017182
       224  O   2s              -0.026972
       224  O   3py             -0.017015
       224  O   3px             -0.017002
       229  O   2s              -0.010999
       239  O   2s              -0.029640
       239  O   3py             -0.010570
       239  O   3pz              0.021710
       239  O   3px             -0.010561
       240  O   2s              -0.029218
       240  O   3py              0.010513
       240  O   3pz              0.021477
       240  O   3px              0.010525
  EIG. VAL/OCC. =     0.930096 /    0.865079
 -----------------------------
        40  Ti  4d+2             0.062261
        57  Ti  4d+2            -0.044698
        58  Ti  4d+2             0.062250
        59  Ti  4d+2            -0.013209
        63  Ti  4d+2            -0.013208
        65  Ti  4d+2            -0.045686
       203  O   3py             -0.514926
       203  O   3px              0.515271
       204  O   3py              0.518852
       204  O   3px             -0.518967
  EIG. VAL/OCC. =     0.946232 /    0.895355
 -----------------------------
        40  Ti  3py             -0.015412
        40  Ti  3px             -0.015418
        40  Ti  4d-1            -0.093371
        40  Ti  4d+1            -0.093401
        48  Ti  3s               0.015660
        50  Ti  3s              -0.015745
        57  Ti  2s              -0.023814
        57  Ti  3s               0.143852
        57  Ti  3py              0.013686
        57  Ti  3px              0.013686
        57  Ti  4d-2             0.071050
        57  Ti  4d0             -0.038096
        58  Ti  3py             -0.015359
        58  Ti  3px             -0.015365
        58  Ti  4d-1             0.093172
        58  Ti  4d+1             0.093201
        65  Ti  2s               0.023628
        65  Ti  3s              -0.142871
        65  Ti  3py              0.013742
        65  Ti  3px              0.013735
        65  Ti  4d-2            -0.070567
        65  Ti  4d0              0.037811
        66  Ti  3s               0.015602
        68  Ti  3s              -0.015696
       166  O   2s              -0.014427
       167  O   2s               0.015870
       167  O   3pz              0.012072
       168  O   2s              -0.016141
       168  O   3pz             -0.012238
       173  O   2s               0.014383
       182  O   2s               0.014381
       193  O   2s              -0.014422
       202  O   2s              -0.014413
       203  O   2s              -0.794615
       203  O   3py              0.034382
       203  O   3px              0.034286
       204  O   2s               0.785781
       204  O   3py              0.028425
       204  O   3px              0.028824
       209  O   2s               0.014367
       218  O   2s               0.014358
       219  O   2s               0.029492
       219  O   3py             -0.019203
       219  O   3px             -0.019207
       224  O   2s              -0.030061
       224  O   3py             -0.019364
       224  O   3px             -0.019359
       229  O   2s              -0.014409
       239  O   2s               0.015765
       239  O   3pz             -0.012000
       240  O   2s              -0.016027
       240  O   3pz              0.012158
 NOTE: IF SOME ORBS ARE EXCLUDED CHECK THE TOTAL CHRG MIGHT NOT REFLECT THE WHOLE FRG CHRG
   MOA FOR FRAGMENTS
   -----------------
  FRAG   POP         CHRG          SPIN
      ----------------------------------------------------
    1     10.80487      1.19513     -0.00000
    2     10.80403      1.19597     -0.00000
    3     13.19073     -1.19073     -0.00000
 ..... END OF MOA ANALYSIS FOR FRAGEMENTS .....
  
 ..... END OF MOA ANALYSIS .....

 ENERGY| Total FORCE_EVAL ( QS ) energy (a.u.):            -8103.538068786262556


 -------------------------------------------------------------------------------
 -                                                                             -
 -                                DBCSR STATISTICS                             -
 -                                                                             -
 -------------------------------------------------------------------------------
 COUNTER                                    TOTAL       BLAS       SMM       ACC
 flops     4 x    24 x     4             74649600     100.0%      0.0%      0.0%
 flops    10 x    24 x     4             93312000     100.0%      0.0%      0.0%
 flops     4 x    24 x    10             93312000     100.0%      0.0%      0.0%
 flops    10 x    24 x    10            116640000     100.0%      0.0%      0.0%
 flops     4 x    20 x     4           1125964800     100.0%      0.0%      0.0%
 flops    10 x    20 x     4           1399680000     100.0%      0.0%      0.0%
 flops     4 x    20 x    10           1399680000     100.0%      0.0%      0.0%
 flops    10 x    20 x    10           1769040000     100.0%      0.0%      0.0%
 flops     4 x     4 x    88           2568867840     100.0%      0.0%      0.0%
 flops    10 x     4 x    88           3193344000     100.0%      0.0%      0.0%
 flops     4 x    10 x    88           3193344000     100.0%      0.0%      0.0%
 flops     4 x     4 x   116           3265297920     100.0%      0.0%      0.0%
 flops    10 x    10 x    88           4036032000     100.0%      0.0%      0.0%
 flops    10 x     4 x   116           4059072000     100.0%      0.0%      0.0%
 flops     4 x    10 x   116           4059072000     100.0%      0.0%      0.0%
 flops    10 x    10 x   116           5130216000     100.0%      0.0%      0.0%
 flops     4 x     4 x   128           7206174720     100.0%      0.0%      0.0%
 flops    10 x     4 x   128           8957952000     100.0%      0.0%      0.0%
 flops     4 x    10 x   128           8957952000     100.0%      0.0%      0.0%
 flops    10 x    10 x   128          11321856000     100.0%      0.0%      0.0%
 flops     4 x     4 x    64          26155745280     100.0%      0.0%      0.0%
 flops    10 x     4 x    64          32514048000     100.0%      0.0%      0.0%
 flops     4 x    10 x    64          32514048000     100.0%      0.0%      0.0%
 flops     4 x     4 x    96          37932503040     100.0%      0.0%      0.0%
 flops    10 x    10 x    64          41094144000     100.0%      0.0%      0.0%
 flops    10 x     4 x    96          47153664000     100.0%      0.0%      0.0%
 flops     4 x    10 x    96          47153664000     100.0%      0.0%      0.0%
 flops    10 x    10 x    96          59596992000     100.0%      0.0%      0.0%
 flops     4 x    32 x     4          93361766400     100.0%      0.0%      0.0%
 flops    10 x    32 x     4         116080128000     100.0%      0.0%      0.0%
 flops     4 x    32 x    10         116080128000     100.0%      0.0%      0.0%
 flops    10 x    32 x    10         146655360000     100.0%      0.0%      0.0%
 flops inhomo. stacks                           0       0.0%      0.0%      0.0%
 flops total                       868.313650E+09     100.0%      0.0%      0.0%
 flops max/rank                      7.958653E+09     100.0%      0.0%      0.0%
 matmuls inhomo. stacks                         0       0.0%      0.0%      0.0%
 matmuls total                          273335580     100.0%      0.0%      0.0%
 number of processed stacks               1431318     100.0%      0.0%      0.0%
 average stack size                                   191.0       0.0       0.0
 marketing flops                     1.711948E+12
 -------------------------------------------------------------------------------
 # multiplications                            221
 max memory usage/rank             259.584000E+06
 # max total images/rank                        2
 # max 3D layers                                1
 # MPI messages exchanged                 1272960
 MPI messages size (bytes):
  total size                       110.196810E+09
  min size                           0.000000E+00
  max size                         210.944000E+03
  average size                      86.567375E+03
 MPI breakdown and total messages size (bytes):
             size <=      128               90720                        0
       128 < size <=     8192               12960                 76982400
      8192 < size <=    32768                   0                        0
     32768 < size <=   131072              942720              73159718400
    131072 < size <=  4194304              226560              36960105600
   4194304 < size <= 16777216                   0                        0
  16777216 < size                               0                        0
 -------------------------------------------------------------------------------

 *** WARNING in dbcsr/mm/dbcsr_mm.F:268 :: Using a non-square number of ***
 *** MPI ranks might lead to poor performance.                          ***
 *** Used ranks: 128                                                    ***
 *** Suggested: 121 256                                                 ***

 -------------------------------------------------------------------------------

 MEMORY| Estimated peak process memory [MiB]                                 362

 -------------------------------------------------------------------------------
 ----                             MULTIGRID INFO                            ----
 -------------------------------------------------------------------------------
 count for grid        1:        2403896          cutoff [a.u.]          325.00
 count for grid        2:        1178623          cutoff [a.u.]          108.33
 count for grid        3:        1432350          cutoff [a.u.]           36.11
 count for grid        4:        1854166          cutoff [a.u.]           12.04
 count for grid        5:         988432          cutoff [a.u.]            4.01
 count for grid        6:              0          cutoff [a.u.]            1.34
 count for grid        7:              0          cutoff [a.u.]            0.45
 count for grid        8:              0          cutoff [a.u.]            0.15
 count for grid        9:              0          cutoff [a.u.]            0.05
 count for grid       10:              0          cutoff [a.u.]            0.02
 total gridlevel count  :        7857467

 -------------------------------------------------------------------------------
 -                                                                             -
 -                         MESSAGE PASSING PERFORMANCE                         -
 -                                                                             -
 -------------------------------------------------------------------------------

 ROUTINE             CALLS      AVE VOLUME [Bytes]
 MP_Group              182
 MP_Bcast             3729                 105727.
 MP_Allreduce        10708                  62982.
 MP_Sync            142867
 MP_Alltoall          7055                 924358.
 MP_ISendRecv       123952                   4455.
 MP_Wait            165094
 MP_comm_split        1424
 MP_ISend            35142                  68841.
 MP_IRecv            35044                  68876.
 MP_Recv            138738                   2044.
 MP_Memory           12382
 -------------------------------------------------------------------------------


 -------------------------------------------------------------------------------
 -                                                                             -
 -                           R E F E R E N C E S                               -
 -                                                                             -
 -------------------------------------------------------------------------------
 
 CP2K version 6.1, the CP2K developers group (2018).
 CP2K is freely available from https://www.cp2k.org/ .

 Schuett, Ole; Messmer, Peter; Hutter, Juerg; VandeVondele, Joost. 
 Electronic Structure Calculations on Graphics Processing Units, John Wiley & Sons, Ltd, 173-190 (2016). 
 GPU-Accelerated Sparse Matrix-Matrix Multiplication for Linear Scaling Density Functional Theory.
 http://dx.doi.org/10.1002/9781118670712.ch8


 Borstnik, U; VandeVondele, J; Weber, V; Hutter, J. 
 PARALLEL COMPUTING, 40 (5-6), 47-58 (2014). 
 Sparse matrix multiplication: The distributed block-compressed sparse
 row library.
 http://dx.doi.org/10.1016/j.parco.2014.03.012


 Hutter, J; Iannuzzi, M; Schiffmann, F; VandeVondele, J. 
 WILEY INTERDISCIPLINARY REVIEWS-COMPUTATIONAL MOLECULAR SCIENCE, 4 (1), 15-25 (2014). 
 CP2K: atomistic simulations of condensed matter systems.
 http://dx.doi.org/10.1002/wcms.1159


 VandeVondele, J; Hutter, J. 
 JOURNAL OF CHEMICAL PHYSICS, 127 (11), 114105 (2007). 
 Gaussian basis sets for accurate calculations on molecular systems in
 gas and condensed phases.
 http://dx.doi.org/10.1063/1.2770708


 Krack, M. 
 THEORETICAL CHEMISTRY ACCOUNTS, 114 (1-3), 145-152 (2005). 
 Pseudopotentials for H to Kr optimized for gradient-corrected
 exchange-correlation functionals.
 http://dx.doi.org/10.1007/s00214-005-0655-y


 VandeVondele, J; Krack, M; Mohamed, F; Parrinello, M; Chassaing, T;
 Hutter, J. COMPUTER PHYSICS COMMUNICATIONS, 167 (2), 103-128 (2005). 
 QUICKSTEP: Fast and accurate density functional calculations using a
 mixed Gaussian and plane waves approach.
 http://dx.doi.org/10.1016/j.cpc.2004.12.014


 Frigo, M; Johnson, SG. 
 PROCEEDINGS OF THE IEEE, 93 (2), 216-231 (2005). 
 The design and implementation of FFTW3.
 http://dx.doi.org/10.1109/JPROC.2004.840301


 Hartwigsen, C; Goedecker, S; Hutter, J. 
 PHYSICAL REVIEW B, 58 (7), 3641-3662 (1998). 
 Relativistic separable dual-space Gaussian pseudopotentials from H to Rn.
 http://dx.doi.org/10.1103/PhysRevB.58.3641


 Dudarev, SL; Botton, GA; Savrasov, SY; Humphreys, CJ; Sutton, AP. 
 PHYSICAL REVIEW B, 57 (3), 1505-1509 (1998). 
 Electron-energy-loss spectra and the structural stability of
 nickel oxide: An LSDA+U study.
 http://dx.doi.org/10.1103/PhysRevB.57.1505


 Lippert, G; Hutter, J; Parrinello, M. 
 MOLECULAR PHYSICS, 92 (3), 477-487 (1997). 
 A hybrid Gaussian and plane wave density functional scheme.
 http://dx.doi.org/10.1080/002689797170220


 Dudarev, SL; Manh, DN; Sutton, AP. 
 PHILOSOPHICAL MAGAZINE B, 75 (5), 613-628 (1997). 
 Effect of Mott-Hubbard correlations on the electronic
 structure and structural stability of uranium dioxide.
 http://dx.doi.org/10.1080/13642819708202343


 Perdew, JP; Burke, K; Ernzerhof, M. 
 PHYSICAL REVIEW LETTERS, 77 (18), 3865-3868 (1996). 
 Generalized gradient approximation made simple.
 http://dx.doi.org/10.1103/PhysRevLett.77.3865


 Goedecker, S; Teter, M; Hutter, J. 
 PHYSICAL REVIEW B, 54 (3), 1703-1710 (1996). 
 Separable dual-space Gaussian pseudopotentials.
 http://dx.doi.org/10.1103/PhysRevB.54.1703


 -------------------------------------------------------------------------------
 -                                                                             -
 -                                T I M I N G                                  -
 -                                                                             -
 -------------------------------------------------------------------------------
 SUBROUTINE                       CALLS  ASD         SELF TIME        TOTAL TIME
                                MAXIMUM       AVERAGE  MAXIMUM  AVERAGE  MAXIMUM
 CP2K                                 1  1.0    0.018    0.025  256.658  256.658
 qs_energies                          1  2.0    0.000    0.000  256.363  256.472
 qs_energies_properties               1  3.0    0.000    0.000  149.154  149.262
 maximal_orbital_analysis             1  4.0   11.519   11.925  149.154  149.262
 moax_frg                             3  5.0  104.239  108.196  135.199  135.309
 scf_env_do_scf                       1  3.0    0.000    0.000  101.893  102.066
 scf_env_do_scf_inner_loop           27  4.0    0.002    0.003  101.893  102.066
 qs_ks_update_qs_env                 27  5.0    0.001    0.001   48.109   48.481
 rebuild_ks_matrix                   27  6.0    0.000    0.000   48.099   48.472
 qs_ks_build_kohn_sham_matrix        27  7.0    0.607    0.980   48.099   48.471
 qs_rho_update_rho                   28  5.0    0.000    0.000   36.385   36.390
 calculate_rho_elec                  56  6.0   28.463   29.846   36.385   36.390
 sum_up_and_integrate                27  8.0    0.016    0.043   34.533   34.536
 integrate_v_rspace                  54  9.0   27.449   28.587   34.518   34.525
 orbmoa_frg                           6  6.0    1.031    2.542   20.304   20.725
 cp_fm_syevd                       1424  6.0    0.003    0.005   19.701   19.892
 cp_fm_redistribute_end            1424  7.0   14.253   17.819   14.575   18.209
 qs_scf_new_mos                      27  5.0    0.001    0.001   16.335   16.902
 cp_fm_syevd_base                  1424  7.2    3.428   16.116    3.428   16.116
 pw_to_cube                          12  7.0    0.176   11.526   15.256   15.278
 eigensolver                         54  6.0    0.003    0.004   15.204   15.215
 mp_sync                         142867  8.1   15.085   15.197   15.085   15.197
 pw_transfer                       1800  9.4    0.083    0.099   12.003   12.434
 fft_wrap_pw1pw2                   1746 10.4    0.010    0.011   11.895   12.319
 fft_wrap_pw1pw2_330                648 11.5    0.437    0.525   10.965   11.383
 fft3d_ps                          1746 12.4    3.305    3.837   10.635   11.233
 rs_pw_transfer                    1224  9.3    0.009    0.011    8.545    9.563
 cp_gemm                            141  7.9    0.000    0.001    5.706    9.370
 cp_gemm_fm_gemm                    141  8.9    0.000    0.001    5.705    9.369
 cp_fm_gemm                         141  9.9    5.705    9.369    5.705    9.369
 qs_vxc_create                       27  8.0    0.000    0.001    8.703    8.757
 xc_vxc_pw_create                    27  9.0    0.124    0.143    8.703    8.757
 density_rs2pw                       56  7.0    0.004    0.004    7.315    8.055
 mp_alltoall_z22v                  1746 14.4    6.034    7.673    6.034    7.673
 rs_pw_transfer_RS2PW_330            70  9.0    0.686    0.828    4.235    5.666
 mp_waitany                        6740 11.3    4.559    5.666    4.559    5.666
 -------------------------------------------------------------------------------

 The number of warnings for this run is : 1
 
 -------------------------------------------------------------------------------
  **** **** ******  **  PROGRAM ENDED AT                 2020-04-19 21:54:05.023
 ***** ** ***  *** **   PROGRAM RAN ON            cpn-u23-36.cbls.ccr.buffalo.ed
 **    ****   ******    PROGRAM RAN BY                                  pavankum
 ***** **    ** ** **   PROGRAM PROCESS ID                                236436
  **** **  *******  **  PROGRAM STOPPED IN /projects/academic/mdupuis2/pavan/MOA
                                           /7.TiO2_pbe_plus_U10/ti_atoms/lowdin_
                                           at_mull_opt_geo/all_orbs_neutral
