     270
 i =        1, E =     -8112.0771892371
 Ti         0.0286063840        0.0286063573       -0.0158368080
 Ti         2.3308605707        2.3308605747        1.4502960544
 Ti         4.6411891959        0.0281225199       -0.0177215939
 Ti         6.9604222784        2.3319845477        1.4503814013
 Ti         9.2834118613        0.0286867317       -0.0176111299
 Ti        11.5977659708        2.3332669790        1.4503606747
 Ti         0.0281225210        4.6411891786       -0.0177216205
 Ti         2.3319846221        6.9604222334        1.4503813304
 Ti         4.6391074841        4.6391075102       -0.0195981051
 Ti         6.9613625190        6.9613624903        1.4505199962
 Ti         9.2807730832        4.6393470795       -0.0194520202
 Ti        11.5988752802        6.9624826026        1.4505192538
 Ti         0.0286867477        9.2834117728       -0.0176111712
 Ti         2.3332670424       11.5977659864        1.4503606339
 Ti         4.6393470992        9.2807730355       -0.0194520291
 Ti         6.9624826637       11.5988752683        1.4505193054
 Ti         9.2809762471        9.2809761854       -0.0195211086
 Ti        11.6003418480       11.6003418768        1.4505604412
 Ti         0.0262739021        0.0262739349        2.9623117406
 Ti         2.3314239136        2.3314239003        4.4471697491
 Ti         4.6411294725        0.0258265719        2.9624896017
 Ti         6.9611358652        2.3319434147        4.4470297365
 Ti         9.2829029410        0.0261450195        2.9624183304
 Ti        11.5985231065        2.3332256779        4.4467331632
 Ti         0.0258265918        4.6411293815        2.9624895882
 Ti         2.3319434901        6.9611357963        4.4470297526
 Ti         4.6390528525        4.6390526998        2.9628282565
 Ti         6.9614643390        6.9614642898        4.4471211157
 Ti         9.2801667672        4.6392064955        2.9627675780
 Ti        11.5990196143        6.9625785140        4.4468390038
 Ti         0.0261449586        9.2829029728        2.9624182973
 Ti         2.3332257686       11.5985231925        4.4467331490
 Ti         4.6392065342        9.2801667313        2.9627675701
 Ti         6.9625786015       11.5990196451        4.4468389924
 Ti         9.2802747661        9.2802748212        2.9626483463
 Ti        11.6005450016       11.6005450770        4.4467485245
 Ti         0.0269055492        0.0269056006        5.9331194373
 Ti         2.3314414259        2.3314414833        7.4163625224
 Ti         4.6413793834        0.0265081476        5.9329285015
 Ti         6.9610221182        2.3319961744        7.4160410574
 Ti         9.2828018022        0.0268792764        5.9329535790
 Ti        11.5983145430        2.3332436176        7.4160629065
 Ti         0.0265081466        4.6413793204        5.9329285321
 Ti         2.3319961995        6.9610220388        7.4160411278
 Ti         4.6392940385        4.6392939093        5.9330313574
 Ti         6.9613577708        6.9613577363        7.4160292275
 Ti         9.2800917651        4.6395074948        5.9330801692
 Ti        11.5988465091        6.9624178901        7.4160782950
 Ti         0.0268792446        9.2828018032        5.9329536158
 Ti         2.3332436021       11.5983145374        7.4160629156
 Ti         4.6395075315        9.2800917175        5.9330801744
 Ti         6.9624179636       11.5988464640        7.4160782452
 Ti         9.2802700131        9.2802700291        5.9330187543
 Ti        11.6003486511       11.6003486499        7.4163654717
 Ti         0.0269229099        0.0269229177        8.9031971293
 Ti         2.3313492657        2.3313493767       10.3864917966
 Ti         4.6415440453        0.0263375190        8.9024466591
 Ti         6.9610866128        2.3320867292       10.3860618596
 Ti         9.2830406089        0.0267235980        8.9025209981
 Ti        11.5984321376        2.3333607215       10.3863263930
 Ti         0.0263375012        4.6415440734        8.9024466974
 Ti         2.3320866946        6.9610865749       10.3860618825
 Ti         4.6392681339        4.6392681870        8.9020800517
 Ti         6.9615630198        6.9615629918       10.3859475977
 Ti         9.2801982223        4.6395158477        8.9021774550
 Ti        11.5991819963        6.9626007610       10.3862321092
 Ti         0.0267236286        9.2830405140        8.9025210410
 Ti         2.3333606367       11.5984320111       10.3863264101
 Ti         4.6395158609        9.2801981623        8.9021774727
 Ti         6.9626008107       11.5991818921       10.3862321055
 Ti         9.2804036999        9.2804035849        8.9021177884
 Ti        11.6006932501       11.6006931644       10.3867480910
 Ti         0.0263206146        0.0263205818       11.8968774208
 Ti         2.3305191787        2.3305192687       13.3685219857
 Ti         4.6405882513        0.0262146825       11.8972108667
 Ti         6.9607265253        2.3311194730       13.3680787841
 Ti         9.2825258854        0.0266238916       11.8973080422
 Ti        11.5980782848        2.3331713922       13.3678877250
 Ti         0.0262146646        4.6405883157       11.8972108616
 Ti         2.3311194582        6.9607264943       13.3680787419
 Ti         4.6388278081        4.6388279199       11.8979043562
 Ti         6.9612045198        6.9612044993       13.3677186680
 Ti         9.2802559506        4.6390916992       11.8980485564
 Ti        11.5988630445        6.9629393189       13.3675811412
 Ti         0.0266239381        9.2825257445       11.8973080381
 Ti         2.3331713341       11.5980781663       13.3678877231
 Ti         4.6390916917        9.2802558900       11.8980485685
 Ti         6.9629393572       11.5988629381       13.3675812030
 Ti         9.2804639538        9.2804638122       11.8980211208
 Ti        11.6009409365       11.6009408652       13.3674564349
  O         1.4290949699        1.4290948695       -0.0211669597
  O         3.2435334420        3.2435334290       -0.0201760713
  O         0.9175798826        3.7365484184        1.4679967657
  O         3.7365484135        0.9175798511        1.4679968255
  O         6.0535605148        1.4227446679       -0.0203002234
  O         7.8916505010        3.2356565351       -0.0195469000
  O         5.5448688997        3.7473317264        1.4670250815
  O         8.3838303914        0.9257346931        1.4678741688
  O        10.7036820202        1.4159002240       -0.0209116238
  O        12.5090089623        3.2548991019       -0.0197105159
  O        10.1925839119        3.7539450776        1.4671944704
  O        12.9897758649        0.9095680598        1.4686266158
  O         1.4227446701        6.0535604850       -0.0203002556
  O         3.2356565534        7.8916504757       -0.0195469875
  O         0.9257346980        8.3838303333        1.4678741859
  O         3.7473317743        5.5448688354        1.4670251959
  O         6.0468570153        6.0468569796       -0.0194035476
  O         7.8839363684        7.8839363282       -0.0188710359
  O         5.5525798015        8.3938927159        1.4668712495
  O         8.3938927728        5.5525797816        1.4668712621
  O        10.6963885665        6.0400823400       -0.0199548048
  O        12.5011359809        7.9038862128       -0.0189814397
  O        10.2004500426        8.4007380199        1.4669495208
  O        13.0005893282        5.5360363707        1.4675367125
  O         1.4159002011       10.7036819658       -0.0209115477
  O         3.2548991092       12.5090089708       -0.0197106199
  O         0.9095680480       12.9897758298        1.4686266465
  O         3.7539450590       10.1925838331        1.4671944759
  O         6.0400823619       10.6963885137       -0.0199547021
  O         7.9038862279       12.5011360106       -0.0189814349
  O         5.5360363827       13.0005892559        1.4675367038
  O         8.4007380375       10.2004500236        1.4669494613
  O        10.6898458217       10.6898457347       -0.0204855444
  O        12.5225370565       12.5225370589       -0.0189659840
  O        10.1847713119       13.0077961802        1.4676571684
  O        13.0077961607       10.1847713121        1.4676570823
  O         1.4427706500        1.4427705906        2.9546315053
  O         3.2285821186        3.2285820102        2.9537058999
  O         0.9217774987        3.7325887466        4.4484796642
  O         3.7325887321        0.9217774417        4.4484796440
  O         6.0675141159        1.4371622080        2.9544314463
  O         7.8763663101        3.2203159534        2.9540198860
  O         5.5497610296        3.7424265590        4.4488424506
  O         8.3798133325        0.9298221681        4.4482753683
  O        10.7169696579        1.4301356894        2.9542530697
  O        12.4941650279        3.2407527687        2.9538377727
  O        10.1973324796        3.7492550977        4.4490242836
  O        12.9864503117        0.9139043165        4.4484020237
  O         1.4371622128        6.0675141066        2.9544314172
  O         3.2203159723        7.8763662437        2.9540198633
  O         0.9298221297        8.3798132895        4.4482753562
  O         3.7424266620        5.5497609413        4.4488424353
  O         6.0615729194        6.0615728698        2.9544775708
  O         7.8681939531        7.8681939151        2.9544156799
  O         5.5574362503        8.3889713452        4.4487445544
  O         8.3889714473        5.5574362379        4.4487445629
  O        10.7104858107        6.0546090246        2.9543161759
  O        12.4858473430        7.8892972452        2.9542659380
  O        10.2052001016        8.3959837805        4.4488190470
  O        12.9963358167        5.5411456198        4.4485112677
  O         1.4301358028       10.7169695958        2.9542530814
  O         3.2407527348       12.4941651128        2.9538377254
  O         0.9139042382       12.9864502583        4.4484020265
  O         3.7492550337       10.1973323475        4.4490242874
  O         6.0546090385       10.7104857584        2.9543162171
  O         7.8892972591       12.4858473490        2.9542659212
  O         5.5411456042       12.9963356611        4.4485112835
  O         8.3959837632       10.2052000617        4.4488190631
  O        10.7037907001       10.7037906947        2.9542552168
  O        12.5082487686       12.5082486111        2.9542784372
  O        10.1896874952       13.0036708394        4.4487274112
  O        13.0036707818       10.1896874962        4.4487274264
  O         1.4379888213        1.4379887124        5.9339539700
  O         3.2341389249        3.2341388455        5.9337392879
  O         0.9224179928        3.7320717002        7.4168037935
  O         3.7320716660        0.9224180034        7.4168037394
  O         6.0626193777        1.4322648196        5.9335158059
  O         7.8816869990        3.2257143383        5.9336090167
  O         5.5503312559        3.7418218190        7.4165610952
  O         8.3790893661        0.9304899057        7.4167681539
  O        10.7120186975        1.4252588552        5.9333698696
  O        12.4990912787        3.2456857264        5.9334547232
  O        10.1978393982        3.7487340021        7.4165872252
  O        12.9858759844        0.9146169375        7.4173578948
  O         1.4322648172        6.0626193625        5.9335158265
  O         3.2257143622        7.8816869391        5.9336090821
  O         0.9304899711        8.3790893534        7.4167681472
  O         3.7418218813        5.5503312323        7.4165609887
  O         6.0564673449        6.0564672926        5.9335203446
  O         7.8733648274        7.8733647865        5.9336825330
  O         5.5581223315        8.3882813685        7.4166894077
  O         8.3882814365        5.5581222798        7.4166894003
  O        10.7054114357        6.0494869876        5.9334081833
  O        12.4906705124        7.8939134065        5.9335773219
  O        10.2058359194        8.3953365419        7.4165276915
  O        12.9957879885        5.5418159937        7.4167425132
  O         1.4252589348       10.7120186407        5.9333698119
  O         3.2456857025       12.4990913320        5.9334547933
  O         0.9146169518       12.9858760242        7.4173578778
  O         3.7487340354       10.1978393688        7.4165872224
  O         6.0494870154       10.7054113778        5.9334081155
  O         7.8939134032       12.4906705497        5.9335773150
  O         5.5418160132       12.9957879251        7.4167425155
  O         8.3953365889       10.2058358442        7.4165277710
  O        10.6987095352       10.6987095150        5.9334479574
  O        12.5126496169       12.5126494811        5.9338057047
  O        10.1901784194       13.0030835106        7.4168459212
  O        13.0030835021       10.1901783979        7.4168459948
  O         1.4385167512        1.4385165680        8.9015348711
  O         3.2334730423        3.2334730722        8.9013893392
  O         0.9175995233        3.7369153848       10.3953779959
  O         3.7369153486        0.9175996071       10.3953779747
  O         6.0632656796        1.4328138545        8.9010242186
  O         7.8811371984        3.2250930735        8.9009425384
  O         5.5451335349        3.7469296802       10.3955058923
  O         8.3839420100        0.9254602050       10.3954870570
  O        10.7126098966        1.4258788170        8.9011626749
  O        12.4985490012        3.2451593521        8.9010359160
  O        10.1927625625        3.7538162571       10.3954395487
  O        12.9905564739        0.9094276011       10.3964869355
  O         1.4328138502        6.0632656567        8.9010242460
  O         3.2250930990        7.8811371758        8.9009425890
  O         0.9254603464        8.3839420154       10.3954870418
  O         3.7469296703        5.5451335765       10.3955058665
  O         6.0570698391        6.0570698006        8.9010216741
  O         7.8728364503        7.8728364115        8.9007502200
  O         5.5528078426        8.3935644916       10.3958193887
  O         8.3935644930        5.5528077673       10.3958193760
  O        10.7060893571        6.0500977326        8.9012046606
  O        12.4902363336        7.8933656608        8.9009020487
  O        10.2006663998        8.4005304824       10.3955262209
  O        13.0009545058        5.5362159243       10.3962207745
  O         1.4258787775       10.7126098654        8.9011626311
  O         3.2451593645       12.4985489427        8.9010359868
  O         0.9094277398       12.9905565938       10.3964869240
  O         3.7538163986       10.1927626571       10.3954395378
  O         6.0500977837       10.7060893028        8.9012045952
  O         7.8933656489       12.4902363776        8.9009020479
  O         5.5362160131       13.0009545851       10.3962207794
  O         8.4005306024       10.2006663183       10.3955262341
  O        10.6994027695       10.6994026579        8.9015571576
  O        12.5122675399       12.5122675481        8.9014283476
  O        10.1845775705       13.0080450811       10.3962452325
  O        13.0080451479       10.1845775142       10.3962452642
  O         1.4426438955        1.4426437164       11.8826426594
  O         3.2281888567        3.2281889217       11.8836355193
  O         0.9314239430        3.7215529170       13.3687769095
  O         3.7215528871        0.9314240124       13.3687769303
  O         6.0676101584        1.4369735661       11.8821059860
  O         7.8761460260        3.2200480979       11.8829243882
  O         5.5603819535        3.7315136399       13.3682271961
  O         8.3685891022        0.9391189859       13.3687034722
  O        10.7169009027        1.4302649957       11.8823292491
  O        12.4939018983        3.2406742701       11.8825829820
  O        10.2077781530        3.7385180119       13.3683921819
  O        12.9750750346        0.9250970259       13.3674021339
  O         1.4369736079        6.0676101162       11.8821059844
  O         3.2200481133        7.8761460119       11.8829243653
  O         0.9391190802        8.3685890916       13.3687034916
  O         3.7315136110        5.5603819723       13.3682272366
  O         6.0613993794        6.0613993502       11.8820753493
  O         7.8681172051        7.8681171701       11.8823225049
  O         5.5679928454        8.3783421666       13.3683789996
  O         8.3783421672        5.5679927927       13.3683790041
  O        10.7105137500        6.0545842330       11.8823213245
  O        12.4859510341        7.8890669554       11.8820547206
  O        10.2156698008        8.3853372322       13.3682838280
  O        12.9856530059        5.5533710455       13.3666151420
  O         1.4302648940       10.7169008826       11.8823292679
  O         3.2406742971       12.4939017988       11.8825829751
  O         0.9250971460       12.9750751010       13.3674021331
  O         3.7385181225       10.2077782140       13.3683921818
  O         6.0545842833       10.7105137005       11.8823213376
  O         7.8890669352       12.4859510922       11.8820547418
  O         5.5533711427       12.9856530601       13.3666151242
  O         8.3853373421       10.2156697464       13.3682837849
  O        10.7039190569       10.7039189049       11.8825870660
  O        12.5084192460       12.5084193358       11.8821515993
  O        10.2013819424       12.9926365950       13.3668197913
  O        12.9926366673       10.2013818979       13.3668197533
     270
 i =        2, E =     -8112.0867181427
 Ti         0.0174752330        0.0174751890       -0.0139528886
 Ti         2.3302658042        2.3302657500        1.4565298990
 Ti         4.6408290600        0.0246153047       -0.0155726619
 Ti         6.9664904380        2.3313246021        1.4572786027
 Ti         9.2809818834        0.0261065169       -0.0163567964
 Ti        11.5914068841        2.3312861363        1.4569052786
 Ti         0.0246153372        4.6408290390       -0.0155726491
 Ti         2.3313246503        6.9664904058        1.4572786024
 Ti         4.6439387473        4.6439387306       -0.0161107962
 Ti         6.9666241105        6.9666240843        1.4568104689
 Ti         9.2857165282        4.6455805351       -0.0164381078
 Ti        11.5908825850        6.9660288748        1.4566311906
 Ti         0.0261065586        9.2809818430       -0.0163567940
 Ti         2.3312861773       11.5914068831        1.4569052780
 Ti         4.6455805743        9.2857165028       -0.0164380991
 Ti         6.9660288976       11.5908825775        1.4566312080
 Ti         9.2870505547        9.2870505141       -0.0152049505
 Ti        11.5902740862       11.5902740653        1.4565931638
 Ti         0.0202959574        0.0202959302        2.9577687130
 Ti         2.3298127476        2.3298126707        4.4392352809
 Ti         4.6414804624        0.0236692313        2.9571511673
 Ti         6.9664809396        2.3315293909        4.4387904315
 Ti         9.2817940720        0.0243746675        2.9574832255
 Ti        11.5911293830        2.3306698514        4.4390440358
 Ti         0.0236692595        4.6414804198        2.9571511799
 Ti         2.3315294390        6.9664808824        4.4387904250
 Ti         4.6429843195        4.6429842295        2.9565593977
 Ti         6.9665664357        6.9665664021        4.4391121803
 Ti         9.2856408903        4.6449501208        2.9565770521
 Ti        11.5902826020        6.9671428285        4.4389568067
 Ti         0.0243746751        9.2817940667        2.9574832323
 Ti         2.3306698663       11.5911293942        4.4390440265
 Ti         4.6449501422        9.2856408655        2.9565770609
 Ti         6.9671428270       11.5902825989        4.4389568171
 Ti         9.2868592065        9.2868592276        2.9556924359
 Ti        11.5917421002       11.5917421041        4.4392820299
 Ti         0.0197502893        0.0197502731        5.9350484770
 Ti         2.3298218368        2.3298217966        7.4178654146
 Ti         4.6414317108        0.0239150680        5.9348961238
 Ti         6.9663035051        2.3315144097        7.4177410973
 Ti         9.2817951432        0.0247450678        5.9349775960
 Ti        11.5916303047        2.3311629413        7.4178404864
 Ti         0.0239150937        4.6414316776        5.9348961181
 Ti         2.3315144504        6.9663034699        7.4177410854
 Ti         4.6427951248        4.6427950495        5.9348642164
 Ti         6.9666555555        6.9666555294        7.4176931960
 Ti         9.2856117683        4.6448580696        5.9348586397
 Ti        11.5904573797        6.9673649394        7.4176786601
 Ti         0.0247450883        9.2817951235        5.9349775809
 Ti         2.3311629589       11.5916303035        7.4178404722
 Ti         4.6448580903        9.2856117385        5.9348586364
 Ti         6.9673649531       11.5904573666        7.4176786701
 Ti         9.2869456131        9.2869456106        5.9347768425
 Ti        11.5917639543       11.5917639152        7.4178688840
 Ti         0.0196723251        0.0196723108        8.9122823852
 Ti         2.3300303658        2.3300303539       10.3945137090
 Ti         4.6411591176        0.0240734605        8.9123088404
 Ti         6.9670116934        2.3313144021       10.3947654609
 Ti         9.2815495843        0.0248003260        8.9120293592
 Ti        11.5911444047        2.3308520746       10.3947520269
 Ti         0.0240734763        4.6411591141        8.9123088421
 Ti         2.3313144263        6.9670116903       10.3947654645
 Ti         4.6427935622        4.6427935595        8.9126850601
 Ti         6.9666278696        6.9666278425       10.3945178084
 Ti         9.2857325364        4.6448668073        8.9126525557
 Ti        11.5912124530        6.9664276393       10.3947668146
 Ti         0.0248003689        9.2815495371        8.9120293520
 Ti         2.3308521019       11.5911443788       10.3947520199
 Ti         4.6448668481        9.2857325086        8.9126525554
 Ti         6.9664276644       11.5912124533       10.3947668227
 Ti         9.2870738668        9.2870738313        8.9135345726
 Ti        11.5918008834       11.5918008156       10.3949005803
 Ti         0.0201634938        0.0201634622       11.8932123820
 Ti         2.3293083773        2.3293083578       13.3665927356
 Ti         4.6417427428        0.0231615328       11.8936280913
 Ti         6.9652028795        2.3312844092       13.3653194280
 Ti         9.2814632775        0.0245893631       11.8943346710
 Ti        11.5915509379        2.3308315854       13.3657093841
 Ti         0.0231615469        4.6417427385       11.8936280813
 Ti         2.3312844352        6.9652028610       13.3653194160
 Ti         4.6427905064        4.6427905346       11.8932439789
 Ti         6.9664134680        6.9664134380       13.3656968479
 Ti         9.2852351236        4.6455037886       11.8933989279
 Ti        11.5893715655        6.9682725076       13.3659002860
 Ti         0.0245893944        9.2814632255       11.8943346760
 Ti         2.3308316099       11.5915508855       13.3657093766
 Ti         4.6455038425        9.2852351052       11.8933989359
 Ti         6.9682725439       11.5893715414       13.3659003070
 Ti         9.2871650027        9.2871649461       11.8919269281
 Ti        11.5911946973       11.5911946486       13.3664752743
  O         1.4277868556        1.4277868440       -0.0241607613
  O         3.2432909689        3.2432909855       -0.0239540238
  O         0.9270118408        3.7396060154        1.4644252166
  O         3.7396060770        0.9270118000        1.4644252274
  O         6.0548884939        1.4342107635       -0.0241327506
  O         7.8830678871        3.2412730874       -0.0239000541
  O         5.5475580937        3.7388026989        1.4642461839
  O         8.3839683835        0.9305850626        1.4644191571
  O        10.6946737005        1.4334713612       -0.0252233509
  O        12.5007000006        3.2439130328       -0.0240090098
  O        10.1884386763        3.7452428262        1.4640909844
  O        12.9945765622        0.9310096754        1.4653418640
  O         1.4342107903        6.0548884734       -0.0241327760
  O         3.2412731225        7.8830678557       -0.0239000929
  O         0.9305850539        8.3839683091        1.4644191541
  O         3.7388027324        5.5475580376        1.4642462297
  O         6.0592528432        6.0592528342       -0.0240046968
  O         7.8830290078        7.8830289695       -0.0232519767
  O         5.5524813900        8.3851303989        1.4643088453
  O         8.3851304509        5.5524813682        1.4643088433
  O        10.6981170151        6.0597115784       -0.0251784203
  O        12.5056557930        7.8751616463       -0.0235998673
  O        10.1891280775        8.3871132193        1.4643487840
  O        12.9956043311        5.5517924505        1.4647206170
  O         1.4334713988       10.6946736731       -0.0252233199
  O         3.2439130482       12.5006999780       -0.0240090517
  O         0.9310096898       12.9945765281        1.4653418637
  O         3.7452428378       10.1884386377        1.4640909881
  O         6.0597116303       10.6981169618       -0.0251783758
  O         7.8751616785       12.5056557665       -0.0235998555
  O         5.5517924509       12.9956042807        1.4647206103
  O         8.3871132437       10.1891280801        1.4643487576
  O        10.6971734661       10.6971733724       -0.0256518241
  O        12.4986355378       12.4986355313       -0.0235784220
  O        10.1935266908       13.0032783381        1.4644907572
  O        13.0032783411       10.1935266480        1.4644907351
  O         1.4344067785        1.4344067532        2.9553847681
  O         3.2374389044        3.2374388366        2.9560704224
  O         0.9274910246        3.7409875162        4.4456471189
  O         3.7409875851        0.9274909503        4.4456471142
  O         6.0615521202        1.4363527376        2.9558814392
  O         7.8807277324        3.2363454309        2.9559436875
  O         5.5482426659        3.7398957164        4.4453924500
  O         8.3828962190        0.9306165875        4.4460045706
  O        10.6981177938        1.4352265861        2.9554806934
  O        12.4980369396        3.2367549740        2.9561760321
  O        10.1867724983        3.7440325636        4.4453268507
  O        12.9935677748        0.9298716630        4.4461913237
  O         1.4363527756        6.0615520624        2.9558814273
  O         3.2363454717        7.8807276666        2.9559436804
  O         0.9306165693        8.3828961371        4.4460045709
  O         3.7398957542        5.5482425688        4.4453924438
  O         6.0630364293        6.0630363329        2.9560175877
  O         7.8778945844        7.8778945394        2.9561442197
  O         5.5532176418        8.3856508383        4.4455254660
  O         8.3856509305        5.5532176284        4.4455254687
  O        10.7039648765        6.0601716700        2.9559869605
  O        12.4947235048        7.8775957779        2.9558288579
  O        10.1869312694        8.3879517098        4.4451048217
  O        12.9940950190        5.5515086564        4.4457498094
  O         1.4352266347       10.6981177746        2.9554806867
  O         3.2367549434       12.4980369779        2.9561760330
  O         0.9298716645       12.9935677515        4.4461913224
  O         3.7440325746       10.1867724741        4.4453268538
  O         6.0601716950       10.7039648164        2.9559869673
  O         7.8775957746       12.4947234810        2.9558288669
  O         5.5515086343       12.9940949296        4.4457498124
  O         8.3879517329       10.1869312821        4.4451048267
  O        10.7020884882       10.7020885158        2.9563698514
  O        12.4974593947       12.4974593912        2.9555322343
  O        10.1935235725       13.0018281307        4.4459812708
  O        13.0018280934       10.1935235297        4.4459812720
  O         1.4345841490        1.4345840983        5.9308861836
  O         3.2362296351        3.2362295781        5.9306657941
  O         0.9285726889        3.7407127972        7.4229099151
  O         3.7407128717        0.9285726800        7.4229099139
  O         6.0621331409        1.4377370865        5.9304858944
  O         7.8799728094        3.2338090317        5.9305369695
  O         5.5491894417        3.7394468712        7.4231299721
  O         8.3821377335        0.9314793369        7.4226754004
  O        10.7006937877        1.4356336109        5.9308750356
  O        12.4967700219        3.2363922743        5.9304702738
  O        10.1872559477        3.7432402470        7.4231298365
  O        12.9931182817        0.9305352150        7.4230610829
  O         1.4377371203        6.0621330984        5.9304858992
  O         3.2338090753        7.8799727585        5.9305369628
  O         0.9314793735        8.3821376965        7.4226754043
  O         3.7394468998        5.5491894007        7.4231299533
  O         6.0637690115        6.0637689276        5.9307511274
  O         7.8770475683        7.8770475166        5.9306217917
  O         5.5540855400        8.3850457675        7.4231682887
  O         8.3850458355        5.5540854930        7.4231682965
  O        10.7053113406        6.0613828145        5.9307303155
  O        12.4961978294        7.8740242879        5.9304883980
  O        10.1872229944        8.3871458685        7.4234782758
  O        12.9935043539        5.5521774120        7.4230944342
  O         1.4356336367       10.7006937704        5.9308750400
  O         3.2363922528       12.4967700348        5.9304702661
  O         0.9305352192       12.9931182613        7.4230610955
  O         3.7432402901       10.1872559198        7.4231298359