 DBCSR| Multiplication driver                                               BLAS
 DBCSR| Multrec recursion limit                                              512
 DBCSR| Multiplication stack size                                           1000
 DBCSR| Maximum elements for images                                    UNLIMITED
 DBCSR| Multiplicative factor virtual images                                   1
 DBCSR| Multiplication size stacks                                             3
 DBCSR| Number of 3D layers                                               SINGLE
 DBCSR| Use MPI memory allocation                                              T
 DBCSR| Use RMA algorithm                                                      F
 DBCSR| Use Communication thread                                               T
 DBCSR| Communication thread load                                             87


  **** **** ******  **  PROGRAM STARTED AT               2019-08-02 13:31:41.052
 ***** ** ***  *** **   PROGRAM STARTED ON        cpn-p28-39.cbls.ccr.buffalo.ed
 **    ****   ******    PROGRAM STARTED BY                              pavankum
 ***** **    ** ** **   PROGRAM PROCESS ID                                 46882
  **** **  *******  **  PROGRAM STARTED IN /projects/academic/mdupuis2/pavan/VAB
                                           _calculation/results_for_paper/7.TiO2
                                           _pbe_plus_U10/point_0.9

 CP2K| version string:                                          CP2K version 6.1
 CP2K| source code revision number:                                    svn:18464
 CP2K| cp2kflags: libint fftw3 libxc parallel mpi3 scalapack libderiv_max_am1=5 
 CP2K|            libint_max_am=6
 CP2K| is freely available from                            https://www.cp2k.org/
 CP2K| Program compiled at                          Fri Nov 30 14:17:09 EST 2018
 CP2K| Program compiled on                       srv-p22-12.cbls.ccr.buffalo.edu
 CP2K| Program compiled for                                                local
 CP2K| Data directory path    /projects/academic/mdupuis2/pavan/cp2k/cp2k-6.1/da
 CP2K| Input file name                                                 input.inp

 GLOBAL| Force Environment number                                              1
 GLOBAL| Basis set file name            /projects/academic/mdupuis2/pavan/BASIS_
 GLOBAL| Potential file name            /projects/academic/mdupuis2/pavan/POTENT
 GLOBAL| MM Potential file name                                     MM_POTENTIAL
 GLOBAL| Coordinate file name                           ./intermediate_point.xyz
 GLOBAL| Method name                                                        CP2K
 GLOBAL| Project name                                                    p_tio2_
 GLOBAL| Preferred FFT library                                             FFTW3
 GLOBAL| Preferred diagonalization lib.                                       SL
 GLOBAL| Run type                                                         ENERGY
 GLOBAL| All-to-all communication in single precision                          F
 GLOBAL| FFTs using library dependent lengths                                  T
 GLOBAL| Global print level                                               MEDIUM
 GLOBAL| Total number of message passing processes                            40
 GLOBAL| Number of threads for this process                                    1
 GLOBAL| This output is from process                                           0
 GLOBAL| CPU model name :  Intel(R) Xeon(R) CPU E5-2650 v3 @ 2.30GHz

 MEMORY| system memory details [Kb]
 MEMORY|                        rank 0           min           max       average
 MEMORY| MemTotal            131740876     131740876     131740876     131740876
 MEMORY| MemFree             125083564     114912992     125083564     119998278
 MEMORY| Buffers                497056        493936        497056        495496
 MEMORY| Cached                1865396       1865396      11996040       6930718
 MEMORY| Slab                   412860        412860        430532        421696
 MEMORY| SReclaimable           232908        232908        254968        243938
 MEMORY| MemLikelyFree       127678924     127657936     127678924     127668430


 *** Fundamental physical constants (SI units) ***

 *** Literature: B. J. Mohr and B. N. Taylor,
 ***             CODATA recommended values of the fundamental physical
 ***             constants: 2006, Web Version 5.1
 ***             http://physics.nist.gov/constants

 Speed of light in vacuum [m/s]                             2.99792458000000E+08
 Magnetic constant or permeability of vacuum [N/A**2]       1.25663706143592E-06
 Electric constant or permittivity of vacuum [F/m]          8.85418781762039E-12
 Planck constant (h) [J*s]                                  6.62606896000000E-34
 Planck constant (h-bar) [J*s]                              1.05457162825177E-34
 Elementary charge [C]                                      1.60217648700000E-19
 Electron mass [kg]                                         9.10938215000000E-31
 Electron g factor [ ]                                     -2.00231930436220E+00
 Proton mass [kg]                                           1.67262163700000E-27
 Fine-structure constant                                    7.29735253760000E-03
 Rydberg constant [1/m]                                     1.09737315685270E+07
 Avogadro constant [1/mol]                                  6.02214179000000E+23
 Boltzmann constant [J/K]                                   1.38065040000000E-23
 Atomic mass unit [kg]                                      1.66053878200000E-27
 Bohr radius [m]                                            5.29177208590000E-11

 *** Conversion factors ***

 [u] -> [a.u.]                                              1.82288848426455E+03
 [Angstrom] -> [Bohr] = [a.u.]                              1.88972613288564E+00
 [a.u.] = [Bohr] -> [Angstrom]                              5.29177208590000E-01
 [a.u.] -> [s]                                              2.41888432650478E-17
 [a.u.] -> [fs]                                             2.41888432650478E-02
 [a.u.] -> [J]                                              4.35974393937059E-18
 [a.u.] -> [N]                                              8.23872205491840E-08
 [a.u.] -> [K]                                              3.15774647902944E+05
 [a.u.] -> [kJ/mol]                                         2.62549961709828E+03
 [a.u.] -> [kcal/mol]                                       6.27509468713739E+02
 [a.u.] -> [Pa]                                             2.94210107994716E+13
 [a.u.] -> [bar]                                            2.94210107994716E+08
 [a.u.] -> [atm]                                            2.90362800883016E+08
 [a.u.] -> [eV]                                             2.72113838565563E+01
 [a.u.] -> [Hz]                                             6.57968392072181E+15
 [a.u.] -> [1/cm] (wave numbers)                            2.19474631370540E+05
 [a.u./Bohr**2] -> [1/cm]                                   5.14048714338585E+03
 

 CELL_TOP| Volume [angstrom^3]:                                         2867.349
 CELL_TOP| Vector a [angstrom    13.869     0.000     0.000    |a| =      13.869
 CELL_TOP| Vector b [angstrom     0.000    13.869     0.000    |b| =      13.869
 CELL_TOP| Vector c [angstrom     0.000     0.000    14.907    |c| =      14.907
 CELL_TOP| Angle (b,c), alpha [degree]:                                   90.000
 CELL_TOP| Angle (a,c), beta  [degree]:                                   90.000
 CELL_TOP| Angle (a,b), gamma [degree]:                                   90.000
 CELL_TOP| Numerically orthorhombic:                                         YES

 CELL| Volume [angstrom^3]:                                             2867.349
 CELL| Vector a [angstrom]:      13.869     0.000     0.000    |a| =      13.869
 CELL| Vector b [angstrom]:       0.000    13.869     0.000    |b| =      13.869
 CELL| Vector c [angstrom]:       0.000     0.000    14.907    |c| =      14.907
 CELL| Angle (b,c), alpha [degree]:                                       90.000
 CELL| Angle (a,c), beta  [degree]:                                       90.000
 CELL| Angle (a,b), gamma [degree]:                                       90.000
 CELL| Numerically orthorhombic:                                             YES

 CELL_REF| Volume [angstrom^3]:                                         2867.349
 CELL_REF| Vector a [angstrom    13.869     0.000     0.000    |a| =      13.869
 CELL_REF| Vector b [angstrom     0.000    13.869     0.000    |b| =      13.869
 CELL_REF| Vector c [angstrom     0.000     0.000    14.907    |c| =      14.907
 CELL_REF| Angle (b,c), alpha [degree]:                                   90.000
 CELL_REF| Angle (a,c), beta  [degree]:                                   90.000
 CELL_REF| Angle (a,b), gamma [degree]:                                   90.000
 CELL_REF| Numerically orthorhombic:                                         YES

 *******************************************************************************
 *******************************************************************************
 **                                                                           **
 **     #####                         ##              ##                      **
 **    ##   ##            ##          ##              ##                      **
 **   ##     ##                       ##            ######                    **
 **   ##     ##  ##   ##  ##   #####  ##  ##   ####   ##    #####    #####    **
 **   ##     ##  ##   ##  ##  ##      ## ##   ##      ##   ##   ##  ##   ##   **
 **   ##  ## ##  ##   ##  ##  ##      ####     ###    ##   ######   ######    **
 **    ##  ###   ##   ##  ##  ##      ## ##      ##   ##   ##       ##        **
 **     #######   #####   ##   #####  ##  ##  ####    ##    #####   ##        **
 **           ##                                                    ##        **
 **                                                                           **
 **                                                ... make the atoms dance   **
 **                                                                           **
 **            Copyright (C) by CP2K developers group (2000 - 2018)           **
 **                                                                           **
 *******************************************************************************

 DFT| Spin unrestricted (spin-polarized) Kohn-Sham calculation               UKS
 DFT| Multiplicity                                                             2
 DFT| Number of spin states                                                    2
 DFT| Charge                                                                  -1
 DFT| Self-interaction correction (SIC)                                       NO
 DFT| Cutoffs: density                                              1.000000E-10
 DFT|          gradient                                             1.000000E-10
 DFT|          tau                                                  1.000000E-10
 DFT|          cutoff_smoothing_range                               0.000000E+00
 DFT| XC density smoothing                                                  NONE
 DFT| XC derivatives                                                          PW

 DFT+U| Method                                                          MULLIKEN
 DFT+U| Check atomic kind information for details
 FUNCTIONAL| ROUTINE=NEW
 FUNCTIONAL| PBE:
 FUNCTIONAL| J.P.Perdew, K.Burke, M.Ernzerhof, Phys. Rev. Letter, vol. 77, n 18,
 FUNCTIONAL|  pp. 3865-3868, (1996){spin polarized}                             

 QS| Method:                                                                 GPW
 QS| Density plane wave grid type                        NON-SPHERICAL FULLSPACE
 QS| Number of grid levels:                                                   10
 QS| Density cutoff [a.u.]:                                                325.0
 QS| Multi grid cutoff [a.u.]: 1) grid level                               325.0
 QS|                           2) grid level                               108.3
 QS|                           3) grid level                                36.1
 QS|                           4) grid level                                12.0
 QS|                           5) grid level                                 4.0
 QS|                           6) grid level                                 1.3
 QS|                           7) grid level                                 0.4
 QS|                           8) grid level                                 0.1
 QS|                           9) grid level                                 0.0
 QS|                          10) grid level                                 0.0
 QS| Grid level progression factor:                                          3.0
 QS| Relative density cutoff [a.u.]:                                        30.0
 QS| Consistent realspace mapping and integration 
 QS| Interaction thresholds: eps_pgf_orb:                                1.0E-12
 QS|                         eps_filter_matrix:                          0.0E+00
 QS|                         eps_core_charge:                            1.0E-14
 QS|                         eps_rho_gspace:                             1.0E-12
 QS|                         eps_rho_rspace:                             1.0E-12
 QS|                         eps_gvg_rspace:                             1.0E-06
 QS|                         eps_ppl:                                    1.0E-02
 QS|                         eps_ppnl:                                   1.0E-08


 ATOMIC KIND INFORMATION

  1. Atomic kind: Ti                                    Number of atoms:      90

     Orbital Basis Set                                         SZV-MOLOPT-SR-GTH

       Number of orbital shell sets:                                           1
       Number of orbital shells:                                               4
       Number of primitive Cartesian functions:                                6
       Number of Cartesian basis functions:                                   11
       Number of spherical basis functions:                                   10
       Norm type:                                                              2

       Normalised Cartesian orbitals:

                        Set   Shell   Orbital            Exponent    Coefficient

                          1       1    2s                7.884570       0.015554
                                                         3.894698       0.963603
                                                         1.513589      -0.631435
                                                         0.596768      -0.343022
                                                         0.222222      -0.006534
                                                         0.077078       0.007652

                          1       2    3s                7.884570      -0.009340
                                                         3.894698       0.212624
                                                         1.513589      -0.258368
                                                         0.596768      -0.226206
                                                         0.222222       0.039438
                                                         0.077078       0.107179

                          1       3    3px               7.884570      -2.034794
                                                         3.894698       0.782008
                                                         1.513589       1.253903
                                                         0.596768       0.347823
                                                         0.222222       0.016778
                                                         0.077078      -0.000433
                          1       3    3py               7.884570      -2.034794
                                                         3.894698       0.782008
                                                         1.513589       1.253903
                                                         0.596768       0.347823
                                                         0.222222       0.016778
                                                         0.077078      -0.000433
                          1       3    3pz               7.884570      -2.034794
                                                         3.894698       0.782008
                                                         1.513589       1.253903
                                                         0.596768       0.347823
                                                         0.222222       0.016778
                                                         0.077078      -0.000433

                          1       4    4dx2              7.884570       3.047350
                                                         3.894698       3.289529
                                                         1.513589       1.060616
                                                         0.596768       0.249930
                                                         0.222222       0.038806
                                                         0.077078       0.002319
                          1       4    4dxy              7.884570       5.278165
                                                         3.894698       5.697631
                                                         1.513589       1.837041
                                                         0.596768       0.432892
                                                         0.222222       0.067214
                                                         0.077078       0.004017
                          1       4    4dxz              7.884570       5.278165
                                                         3.894698       5.697631
                                                         1.513589       1.837041
                                                         0.596768       0.432892
                                                         0.222222       0.067214
                                                         0.077078       0.004017
                          1       4    4dy2              7.884570       3.047350
                                                         3.894698       3.289529
                                                         1.513589       1.060616
                                                         0.596768       0.249930
                                                         0.222222       0.038806
                                                         0.077078       0.002319
                          1       4    4dyz              7.884570       5.278165
                                                         3.894698       5.697631
                                                         1.513589       1.837041
                                                         0.596768       0.432892
                                                         0.222222       0.067214
                                                         0.077078       0.004017
                          1       4    4dz2              7.884570       3.047350
                                                         3.894698       3.289529
                                                         1.513589       1.060616
                                                         0.596768       0.249930
                                                         0.222222       0.038806
                                                         0.077078       0.002319

     GTH Potential information for                                   GTH-PBE-q12

       Description:                       Goedecker-Teter-Hutter pseudopotential
                                           Goedecker et al., PRB 54, 1703 (1996)
                                          Hartwigsen et al., PRB 58, 3641 (1998)
                                                      Krack, TCA 114, 145 (2005)

       Gaussian exponent of the core charge distribution:               3.462604
       Electronic configuration (s p d ...):                           4   6   2

       Parameters of the local part of the GTH pseudopotential:

                          rloc        C1          C2          C3          C4
                        0.380000    8.711442   -0.700287

       Parameters of the non-local part of the GTH pseudopotential:

                   l      r(l)      h(i,j,l)

                   0    0.337771    2.575264    3.692971
                                    3.692971   -4.767605
                   1    0.242531   -4.630541    8.870875
                                    8.870875  -10.496161
                   2    0.243317   -9.406653

     A DFT+U correction is applied to atoms of this atomic kind:
       Angular quantum momentum number L:                                      2
       U(eff) = (U - J) value in [eV]:                                     9.987

  2. Atomic kind: O                                     Number of atoms:     180

     Orbital Basis Set                                            SZV-MOLOPT-GTH

       Number of orbital shell sets:                                           1
       Number of orbital shells:                                               2
       Number of primitive Cartesian functions:                                7
       Number of Cartesian basis functions:                                    4
       Number of spherical basis functions:                                    4
       Norm type:                                                              2

       Normalised Cartesian orbitals:

                        Set   Shell   Orbital            Exponent    Coefficient

                          1       1    2s               12.015955      -0.284499
                                                         5.108150      -0.322498
                                                         2.048398       0.148191
                                                         0.832382       0.295475
                                                         0.352316       0.150829
                                                         0.142977       0.015788
                                                         0.046761      -0.000019

                          1       2    3px              12.015955       1.192141
                                                         5.108150       1.354170
                                                         2.048398       0.897267
                                                         0.832382       0.408839
                                                         0.352316       0.116648
                                                         0.142977       0.022184
                                                         0.046761       0.000308
                          1       2    3py              12.015955       1.192141
                                                         5.108150       1.354170
                                                         2.048398       0.897267
                                                         0.832382       0.408839
                                                         0.352316       0.116648
                                                         0.142977       0.022184
                                                         0.046761       0.000308
                          1       2    3pz              12.015955       1.192141
                                                         5.108150       1.354170
                                                         2.048398       0.897267
                                                         0.832382       0.408839
                                                         0.352316       0.116648
                                                         0.142977       0.022184
                                                         0.046761       0.000308

     GTH Potential information for                                    GTH-PBE-q6

       Description:                       Goedecker-Teter-Hutter pseudopotential
                                           Goedecker et al., PRB 54, 1703 (1996)
                                          Hartwigsen et al., PRB 58, 3641 (1998)
                                                      Krack, TCA 114, 145 (2005)

       Gaussian exponent of the core charge distribution:               8.360253
       Electronic configuration (s p d ...):                               2   4

       Parameters of the local part of the GTH pseudopotential:

                          rloc        C1          C2          C3          C4
                        0.244554  -16.667215    2.487311

       Parameters of the non-local part of the GTH pseudopotential:

                   l      r(l)      h(i,j,l)

                   0    0.220956   18.337458
                   1    0.211332


 MOLECULE KIND INFORMATION


 All atoms are their own molecule, skipping detailed information


 TOTAL NUMBERS AND MAXIMUM NUMBERS

  Total number of            - Atomic kinds:                                   2
                             - Atoms:                                        270
                             - Shell sets:                                   270
                             - Shells:                                       720
                             - Primitive Cartesian functions:               1800
                             - Cartesian basis functions:                   1710
                             - Spherical basis functions:                   1620

  Maximum angular momentum of- Orbital basis functions:                        2
                             - Local part of the GTH pseudopotential:          2
                             - Non-local part of the GTH pseudopotential:      3


 MODULE QUICKSTEP:  ATOMIC COORDINATES IN angstrom

  Atom  Kind  Element       X           Y           Z          Z(eff)       Mass

       1     1 Ti  22   -0.000894    0.001777    0.002475     12.00      47.8670
       2     1 Ti  22    2.313580    2.309242    1.490131     12.00      47.8670
       3     1 Ti  22    4.631589    0.008584    0.001106     12.00      47.8670
       4     1 Ti  22    6.934548    2.311544    1.475198     12.00      47.8670
       5     1 Ti  22    9.246310    0.000011   -0.000897     12.00      47.8670
       6     1 Ti  22   11.555428    2.313688    1.490205     12.00      47.8670
       7     1 Ti  22    0.001259    4.621571    0.002430     12.00      47.8670
       8     1 Ti  22    2.312286    6.933809    1.489864     12.00      47.8670
       9     1 Ti  22    4.623016    4.623306   -0.000898     12.00      47.8670
      10     1 Ti  22    6.936690    6.932427    1.490205     12.00      47.8670
      11     1 Ti  22    9.237606    4.614604    0.001210     12.00      47.8670
      12     1 Ti  22   11.554803    6.931799    1.489280     12.00      47.8670
      13     1 Ti  22    0.000086    9.246083    0.000900     12.00      47.8670
      14     1 Ti  22    2.314319   11.560317    1.489262     12.00      47.8670
      15     1 Ti  22    4.624775    9.245103    0.002476     12.00      47.8670
      16     1 Ti  22    6.932245   11.559579    1.490131     12.00      47.8670
      17     1 Ti  22    9.244578    9.247255    0.002433     12.00      47.8670
      18     1 Ti  22   11.556811   11.558283    1.489864     12.00      47.8670
      19     1 Ti  22    0.000694   -0.000011    2.978189     12.00      47.8670
      20     1 Ti  22    2.314287    2.308603    4.467424     12.00      47.8670
      21     1 Ti  22    4.632716    0.009715    2.978055     12.00      47.8670
      22     1 Ti  22    6.934557    2.311552    4.479233     12.00      47.8670
      23     1 Ti  22    9.243791    0.002091    2.978698     12.00      47.8670
      24     1 Ti  22   11.554872    2.314483    4.467343     12.00      47.8670
      25     1 Ti  22   -0.000546    4.623060    2.978125     12.00      47.8670
      26     1 Ti  22    2.312718    6.933389    4.466908     12.00      47.8670
      27     1 Ti  22    4.625093    4.620789    2.978699     12.00      47.8670
      28     1 Ti  22    6.937485    6.931871    4.467343     12.00      47.8670
      29     1 Ti  22    9.236399    4.613398    2.978132     12.00      47.8670
      30     1 Ti  22   11.554306    6.931301    4.468789     12.00      47.8670
      31     1 Ti  22    0.000091    9.246090    2.978094     12.00      47.8670
      32     1 Ti  22    2.314852   11.560850    4.468812     12.00      47.8670
      33     1 Ti  22    4.622993    9.246693    2.978189     12.00      47.8670
      34     1 Ti  22    6.931608   11.560281    4.467424     12.00      47.8670
      35     1 Ti  22    9.246061    9.245454    2.978126     12.00      47.8670
      36     1 Ti  22   11.556393   11.558714    4.466909     12.00      47.8670
      37     1 Ti  22   -0.001265    0.002401    5.958760     12.00      47.8670
      38     1 Ti  22    2.315463    2.307152    7.452279     12.00      47.8670
      39     1 Ti  22    4.631912    0.008902    5.958856     12.00      47.8670
      40     1 Ti  22    6.934702    2.311688    7.476819     12.00      47.8670
      41     1 Ti  22    9.246582    0.000239    5.962271     12.00      47.8670
      42     1 Ti  22   11.554680    2.316996    7.452231     12.00      47.8670
      43     1 Ti  22    0.001857    4.621193    5.958774     12.00      47.8670
      44     1 Ti  22    2.313950    6.932958    7.452269     12.00      47.8670
      45     1 Ti  22    4.623246    4.623577    5.962271     12.00      47.8670
      46     1 Ti  22    6.939996    6.931680    7.452229     12.00      47.8670
      47     1 Ti  22    9.237330    4.614328    5.958871     12.00      47.8670
      48     1 Ti  22   11.553748    6.930726    7.455348     12.00      47.8670
      49     1 Ti  22    0.000127    9.246123    5.960029     12.00      47.8670
      50     1 Ti  22    2.315489   11.561488    7.455346     12.00      47.8670
      51     1 Ti  22    4.625400    9.244732    5.958759     12.00      47.8670
      52     1 Ti  22    6.930175   11.561436    7.452276     12.00      47.8670
      53     1 Ti  22    9.244203    9.247849    5.958773     12.00      47.8670
      54     1 Ti  22   11.555965   11.559944    7.452268     12.00      47.8670
      55     1 Ti  22    0.000457   -0.000641    8.946738     12.00      47.8670
      56     1 Ti  22    2.310363    2.311995   10.441040     12.00      47.8670
      57     1 Ti  22    4.636318    0.013280    8.946202     12.00      47.8670
      58     1 Ti  22    6.934860    2.311845   10.428872     12.00      47.8670
      59     1 Ti  22    9.242264    0.005737    8.951174     12.00      47.8670
      60     1 Ti  22   11.560412    2.312787   10.441057     12.00      47.8670
      61     1 Ti  22    0.001377    4.625442    8.946860     12.00      47.8670
      62     1 Ti  22    2.312632    6.935334   10.440938     12.00      47.8670
      63     1 Ti  22    4.628743    4.619254    8.951175     12.00      47.8670
      64     1 Ti  22    6.935781    6.937408   10.441057     12.00      47.8670
      65     1 Ti  22    9.233170    4.610170    8.946173     12.00      47.8670
      66     1 Ti  22   11.550459    6.927430   10.441333     12.00      47.8670
      67     1 Ti  22    0.000131    9.246124    8.947797     12.00      47.8670
      68     1 Ti  22    2.318824   11.564824   10.441319     12.00      47.8670
      69     1 Ti  22    4.622366    9.246464    8.946737     12.00      47.8670
      70     1 Ti  22    6.935040   11.556335   10.441038     12.00      47.8670
      71     1 Ti  22    9.248465    9.247345    8.946857     12.00      47.8670
      72     1 Ti  22   11.558331   11.558614   10.440938     12.00      47.8670
      73     1 Ti  22   -0.000057   -0.000622   11.933285     12.00      47.8670
      74     1 Ti  22    2.315381    2.307376   13.421483     12.00      47.8670
      75     1 Ti  22    4.637668    0.014638   11.932254     12.00      47.8670
      76     1 Ti  22    6.934686    2.311674   13.382600     12.00      47.8670
      77     1 Ti  22    9.242838    0.004856   11.925883     12.00      47.8670
      78     1 Ti  22   11.554282    2.316286   13.421585     12.00      47.8670
      79     1 Ti  22    0.001661    4.625198   11.933247     12.00      47.8670
      80     1 Ti  22    2.313598    6.933022   13.421528     12.00      47.8670
      81     1 Ti  22    4.627860    4.619828   11.925883     12.00      47.8670
      82     1 Ti  22    6.939288    6.931282   13.421586     12.00      47.8670
      83     1 Ti  22    9.231773    4.608772   11.932305     12.00      47.8670
      84     1 Ti  22   11.553531    6.930512   13.418588     12.00      47.8670
      85     1 Ti  22    0.000119    9.246114   11.931504     12.00      47.8670
      86     1 Ti  22    2.315629   11.561630   13.418567     12.00      47.8670
      87     1 Ti  22    4.622382    9.245948   11.933286     12.00      47.8670
      88     1 Ti  22    6.930390   11.561362   13.421486     12.00      47.8670
      89     1 Ti  22    9.248217    9.247636   11.933251     12.00      47.8670
      90     1 Ti  22   11.556031   11.559595   13.421529     12.00      47.8670
      91     2 O    8    1.407744    1.410094   -0.000155      6.00      15.9994
      92     2 O    8    3.212551    3.213266   -0.000956      6.00      15.9994
      93     2 O    8    0.902564    3.721006    1.485970      6.00      15.9994
      94     2 O    8    3.718909    0.902661    1.486146      6.00      15.9994
      95     2 O    8    6.029628    1.406626    0.007178      6.00      15.9994
      96     2 O    8    7.839497    3.216496    0.007209      6.00      15.9994
      97     2 O    8    5.522813    3.723229    1.485734      6.00      15.9994
      98     2 O    8    8.346230    0.899812    1.485734      6.00      15.9994
      99     2 O    8   10.656537    1.409824   -0.000989      6.00      15.9994
     100     2 O    8   12.461365    3.212977   -0.000127      6.00      15.9994
     101     2 O    8   10.150138    3.720391    1.486137      6.00      15.9994
     102     2 O    8   12.966482    0.902055    1.485936      6.00      15.9994
     103     2 O    8    1.409556    6.032246   -0.000812      6.00      15.9994
     104     2 O    8    3.213828    7.836523   -0.000780      6.00      15.9994
     105     2 O    8    0.902721    8.343312    1.486031      6.00      15.9994
     106     2 O    8    3.719649    5.526402    1.485496      6.00      15.9994
     107     2 O    8    6.032824    6.033535   -0.000990      6.00      15.9994
     108     2 O    8    7.835978    7.838363   -0.000128      6.00      15.9994
     109     2 O    8    5.525055    8.343481    1.485936      6.00      15.9994
     110     2 O    8    8.343392    5.527137    1.486137      6.00      15.9994
     111     2 O    8   10.656771    6.033770    0.000311      6.00      15.9994
     112     2 O    8   12.460277    7.837276   -0.000780      6.00      15.9994
     113     2 O    8   10.146799    8.345192    1.485955      6.00      15.9994
     114     2 O    8   12.968193    5.523798    1.485956      6.00      15.9994
     115     2 O    8    1.408756   10.654756   -0.000793      6.00      15.9994
     116     2 O    8    3.212289   12.458289    0.000284      6.00      15.9994
     117     2 O    8    0.900863   12.968257    1.485928      6.00      15.9994
     118     2 O    8    3.722256   10.146863    1.485927      6.00      15.9994
     119     2 O    8    6.033096   10.653741   -0.000155      6.00      15.9994
     120     2 O    8    7.836268   12.458549   -0.000956      6.00      15.9994
     121     2 O    8    5.525662   12.964908    1.486146      6.00      15.9994
     122     2 O    8    8.344008   10.148563    1.485969      6.00      15.9994
     123     2 O    8   10.655248   10.655555   -0.000812      6.00      15.9994
     124     2 O    8   12.459525   12.459828   -0.000780      6.00      15.9994
     125     2 O    8   10.149404   12.965648    1.485497      6.00      15.9994
     126     2 O    8   12.966313   10.148720    1.486031      6.00      15.9994
     127     2 O    8    1.408236    1.409801    2.972625      6.00      15.9994
     128     2 O    8    3.212523    3.213182    2.972694      6.00      15.9994
     129     2 O    8    0.902291    3.721364    4.461815      6.00      15.9994
     130     2 O    8    3.717578    0.902163    4.458050      6.00      15.9994
     131     2 O    8    6.030575    1.407574    2.970672      6.00      15.9994
     132     2 O    8    7.838489    3.215488    2.970679      6.00      15.9994
     133     2 O    8    5.522120    3.723928    4.459249      6.00      15.9994
     134     2 O    8    8.346929    0.899119    4.459247      6.00      15.9994
     135     2 O    8   10.656522    1.409868    2.972687      6.00      15.9994
     136     2 O    8   12.460829    3.213259    2.972592      6.00      15.9994
     137     2 O    8   10.151529    3.720933    4.458013      6.00      15.9994
     138     2 O    8   12.966796    0.901752    4.461688      6.00      15.9994
     139     2 O    8    1.409475    6.032526    2.973186      6.00      15.9994
     140     2 O    8    3.213494    7.836550    2.973198      6.00      15.9994
     141     2 O    8    0.902584    8.343430    4.461847      6.00      15.9994
     142     2 O    8    3.719097    5.526947    4.459868      6.00      15.9994
     143     2 O    8    6.032868    6.033521    2.972686      6.00      15.9994
     144     2 O    8    7.836259    7.837828    2.972591      6.00      15.9994
     145     2 O    8    5.524752    8.343794    4.461686      6.00      15.9994
     146     2 O    8    8.343934    5.528528    4.458013      6.00      15.9994
     147     2 O    8   10.656390    6.033389    2.972731      6.00      15.9994
     148     2 O    8   12.460257    7.837256    2.972753      6.00      15.9994
     149     2 O    8   10.146690    8.345582    4.461997      6.00      15.9994
     150     2 O    8   12.968584    5.523688    4.461999      6.00      15.9994
     151     2 O    8    1.408760   10.654760    2.972722      6.00      15.9994
     152     2 O    8    3.212666   12.458666    2.972694      6.00      15.9994
     153     2 O    8    0.900511   12.968385    4.461854      6.00      15.9994
     154     2 O    8    3.722385   10.146511    4.461853      6.00      15.9994
     155     2 O    8    6.032801   10.654235    2.972624      6.00      15.9994
     156     2 O    8    7.836183   12.458523    2.972694      6.00      15.9994
     157     2 O    8    5.525163   12.963577    4.458049      6.00      15.9994
     158     2 O    8    8.344366   10.148289    4.461813      6.00      15.9994
     159     2 O    8   10.655528   10.655475    2.973185      6.00      15.9994
     160     2 O    8   12.459551   12.459494    2.973197      6.00      15.9994
     161     2 O    8   10.149949   12.965096    4.459866      6.00      15.9994
     162     2 O    8   12.966431   10.148583    4.461846      6.00      15.9994
     163     2 O    8    1.406671    1.410344    5.951009      6.00      15.9994
     164     2 O    8    3.211250    3.213255    5.951335      6.00      15.9994
     165     2 O    8    0.901716    3.720481    7.450425      6.00      15.9994
     166     2 O    8    3.709551    0.898669    7.433386      6.00      15.9994
     167     2 O    8    6.025976    1.402970    5.930740      6.00      15.9994
     168     2 O    8    7.843203    3.220200    5.930703      6.00      15.9994
     169     2 O    8    5.518366    3.727879    7.437844      6.00      15.9994
     170     2 O    8    8.350886    0.895363    7.437838      6.00      15.9994
     171     2 O    8   10.657853    1.409855    5.951175      6.00      15.9994
     172     2 O    8   12.462548    3.212836    5.950896      6.00      15.9994
     173     2 O    8   10.159856    3.724645    7.433214      6.00      15.9994
     174     2 O    8   12.967623    0.902800    7.449854      6.00      15.9994
     175     2 O    8    1.409314    6.032364    5.953393      6.00      15.9994
     176     2 O    8    3.213668    7.836704    5.953290      6.00      15.9994
     177     2 O    8    0.902778    8.343292    7.448312      6.00      15.9994
     178     2 O    8    3.716961    5.529215    7.443008      6.00      15.9994
     179     2 O    8    6.032855    6.034850    5.951176      6.00      15.9994
     180     2 O    8    7.835837    7.839545    5.950894      6.00      15.9994
     181     2 O    8    5.525800    8.344622    7.449848      6.00      15.9994
     182     2 O    8    8.347646    5.536853    7.433215      6.00      15.9994
     183     2 O    8   10.658230    6.035227    5.949337      6.00      15.9994
     184     2 O    8   12.460709    7.837707    5.952539      6.00      15.9994
     185     2 O    8   10.146659    8.345360    7.449328      6.00      15.9994
     186     2 O    8   12.968363    5.523656    7.449330      6.00      15.9994
     187     2 O    8    1.408326   10.654326    5.952379      6.00      15.9994
     188     2 O    8    3.210903   12.456903    5.949238      6.00      15.9994
     189     2 O    8    0.900836   12.968529    7.448842      6.00      15.9994
     190     2 O    8    3.722530   10.146836    7.448838      6.00      15.9994
     191     2 O    8    6.033345   10.652668    5.951005      6.00      15.9994
     192     2 O    8    7.836258   12.457248    5.951331      6.00      15.9994
     193     2 O    8    5.521668   12.955540    7.433383      6.00      15.9994
     194     2 O    8    8.343484   10.147712    7.450416      6.00      15.9994
     195     2 O    8   10.655367   10.655312    5.953391      6.00      15.9994
     196     2 O    8   12.459707   12.459668    5.953290      6.00      15.9994
     197     2 O    8   10.152220   12.962959    7.443004      6.00      15.9994
     198     2 O    8   12.966294   10.148777    7.448312      6.00      15.9994
     199     2 O    8    1.409311    1.409300    8.948671      6.00      15.9994
     200     2 O    8    3.213009    3.212396    8.940693      6.00      15.9994
     201     2 O    8    0.903357    3.721137   10.440399      6.00      15.9994
     202     2 O    8    3.722788    0.904393   10.436949      6.00      15.9994
     203     2 O    8    5.996466    1.373428    8.871789      6.00      15.9994
     204     2 O    8    7.873150    3.250138    8.871509      6.00      15.9994
     205     2 O    8    5.506475    3.740476   10.435485      6.00      15.9994
     206     2 O    8    8.363487    0.883468   10.435483      6.00      15.9994
     207     2 O    8   10.656284    1.410809    8.939739      6.00      15.9994
     208     2 O    8   12.459911    3.213838    8.948684      6.00      15.9994
     209     2 O    8   10.146503    3.718814   10.436785      6.00      15.9994
     210     2 O    8   12.965934    0.902167   10.440154      6.00      15.9994
     211     2 O    8    1.408973    6.032690    8.946833      6.00      15.9994
     212     2 O    8    3.213510    7.837272    8.946409      6.00      15.9994
     213     2 O    8    0.902342    8.343911   10.440373      6.00      15.9994
     214     2 O    8    3.714943    5.531808   10.438182      6.00      15.9994
     215     2 O    8    6.033810    6.033281    8.939736      6.00      15.9994
     216     2 O    8    7.836840    7.836909    8.948682      6.00      15.9994
     217     2 O    8    5.525168    8.342932   10.440151      6.00      15.9994
     218     2 O    8    8.341813    5.523500   10.436784      6.00      15.9994
     219     2 O    8   10.659707    6.036704    8.941606      6.00      15.9994
     220     2 O    8   12.461239    7.838235    8.945436      6.00      15.9994
     221     2 O    8   10.146505    8.345182   10.440579      6.00      15.9994
     222     2 O    8   12.968186    5.523503   10.440581      6.00      15.9994
     223     2 O    8    1.407870   10.653869    8.945071      6.00      15.9994
     224     2 O    8    3.209445   12.455443    8.941479      6.00      15.9994
     225     2 O    8    0.900990   12.968698   10.440366      6.00      15.9994
     226     2 O    8    3.722699   10.146990   10.440364      6.00      15.9994
     227     2 O    8    6.032304   10.655306    8.948668      6.00      15.9994
     228     2 O    8    7.835401   12.459004    8.940681      6.00      15.9994
     229     2 O    8    5.527397   12.968778   10.436946      6.00      15.9994
     230     2 O    8    8.344140   10.149355   10.440396      6.00      15.9994
     231     2 O    8   10.655693   10.654969    8.946829      6.00      15.9994
     232     2 O    8   12.460273   12.459509    8.946412      6.00      15.9994
     233     2 O    8   10.154810   12.960936   10.438180      6.00      15.9994
     234     2 O    8   12.966912   10.148339   10.440373      6.00      15.9994
     235     2 O    8    1.409358    1.409731   11.929019      6.00      15.9994
     236     2 O    8    3.212889    3.212559   11.931104      6.00      15.9994
     237     2 O    8    0.901961    3.720694   13.418706      6.00      15.9994
     238     2 O    8    3.711666    0.899126   13.424524      6.00      15.9994
     239     2 O    8    6.001746    1.378708   11.993455      6.00      15.9994
     240     2 O    8    7.867864    3.244850   11.993599      6.00      15.9994
     241     2 O    8    5.521188    3.724994   13.420543      6.00      15.9994
     242     2 O    8    8.347999    0.898185   13.420546      6.00      15.9994
     243     2 O    8   10.656372    1.410673   11.931128      6.00      15.9994
     244     2 O    8   12.459808    3.213400   11.928880      6.00      15.9994
     245     2 O    8   10.157592    3.724063   13.424549      6.00      15.9994
     246     2 O    8   12.967216    0.902487   13.418672      6.00      15.9994
     247     2 O    8    1.409260    6.032696   11.931023      6.00      15.9994
     248     2 O    8    3.213489    7.836980   11.931057      6.00      15.9994
     249     2 O    8    0.902660    8.343428   13.419305      6.00      15.9994
     250     2 O    8    3.718830    5.527378   13.419354      6.00      15.9994
     251     2 O    8    6.033673    6.033370   11.931127      6.00      15.9994
     252     2 O    8    7.836401    7.836806   11.928879      6.00      15.9994
     253     2 O    8    5.525488    8.344215   13.418671      6.00      15.9994
     254     2 O    8    8.347063    5.534590   13.424548      6.00      15.9994
     255     2 O    8   10.659392    6.036390   11.931152      6.00      15.9994
     256     2 O    8   12.460752    7.837749   11.930736      6.00      15.9994
     257     2 O    8   10.146646    8.345284   13.419044      6.00      15.9994
     258     2 O    8   12.968286    5.523644   13.419044      6.00      15.9994
     259     2 O    8    1.408340   10.654339   11.930676      6.00      15.9994
     260     2 O    8    3.209709   12.455706   11.931086      6.00      15.9994
     261     2 O    8    0.900829   12.968481   13.419001      6.00      15.9994
     262     2 O    8    3.722482   10.146829   13.419000      6.00      15.9994
     263     2 O    8    6.032735   10.655354   11.929016      6.00      15.9994
     264     2 O    8    7.835563   12.458885   11.931103      6.00      15.9994
     265     2 O    8    5.522127   12.957656   13.424527      6.00      15.9994
     266     2 O    8    8.343695   10.147958   13.418705      6.00      15.9994
     267     2 O    8   10.655698   10.655256   11.931023      6.00      15.9994
     268     2 O    8   12.459980   12.459487   11.931057      6.00      15.9994
     269     2 O    8   10.150381   12.964828   13.419353      6.00      15.9994
     270     2 O    8   12.966430   10.148659   13.419305      6.00      15.9994




 SCF PARAMETERS         Density guess:                                   RESTART
                        --------------------------------------------------------
                        max_scf:                                             500
                        max_scf_history:                                       0
                        max_diis:                                              4
                        --------------------------------------------------------
                        eps_scf:                                        1.00E-05
                        eps_scf_history:                                0.00E+00
                        eps_diis:                                       5.00E-01
                        eps_eigval:                                     1.00E-05
                        --------------------------------------------------------
                        level_shift [a.u.]:                                 0.00
                        --------------------------------------------------------
                        Mixing method:                            BROYDEN_MIXING
                                                charge density mixing in g-space
                        --------------------------------------------------------
                        Outer loop SCF in use 
                        No variables optimised in outer loop
                        eps_scf                                         1.00E-05
                        max_scf                                              500
                        No outer loop optimization
                        step_size                                       5.00E-01

 PW_GRID| Information for grid number                                          1
 PW_GRID| Grid distributed over                                    40 processors
 PW_GRID| Real space group dimensions                                    40    1
 PW_GRID| the grid is blocked:                                                NO
 PW_GRID| Cutoff [a.u.]                                                    325.0
 PW_GRID| spherical cutoff:                                                   NO
 PW_GRID|   Bounds   1           -108     107                Points:         216
 PW_GRID|   Bounds   2           -108     107                Points:         216
 PW_GRID|   Bounds   3           -115     115                Points:         231
 PW_GRID| Volume element (a.u.^3)  0.1795E-02     Volume (a.u.^3)     19349.8300
 PW_GRID| Grid span                                                    FULLSPACE
 PW_GRID|   Distribution                         Average         Max         Min
 PW_GRID|   G-Vectors                           269438.4      269568      269352
 PW_GRID|   G-Rays                                1247.4        1248        1247
 PW_GRID|   Real Space Points                   269438.4      299376      249480

 PW_GRID| Information for grid number                                          2
 PW_GRID| Grid distributed over                                    40 processors
 PW_GRID| Real space group dimensions                                    40    1
 PW_GRID| the grid is blocked:                                                NO
 PW_GRID| Cutoff [a.u.]                                                    108.3
 PW_GRID| spherical cutoff:                                                   NO
 PW_GRID|   Bounds   1            -63      62                Points:         126
 PW_GRID|   Bounds   2            -63      62                Points:         126
 PW_GRID|   Bounds   3            -66      65                Points:         132
 PW_GRID| Volume element (a.u.^3)  0.9233E-02     Volume (a.u.^3)     19349.8300
 PW_GRID| Grid span                                                    FULLSPACE
 PW_GRID|   Distribution                         Average         Max         Min
 PW_GRID|   G-Vectors                            52390.8       52794       52290
 PW_GRID|   G-Rays                                 415.8         419         415
 PW_GRID|   Real Space Points                    52390.8       66528       49896

 PW_GRID| Information for grid number                                          3
 PW_GRID| Grid distributed over                                    40 processors
 PW_GRID| Real space group dimensions                                    40    1
 PW_GRID| the grid is blocked:                                                NO
 PW_GRID| Cutoff [a.u.]                                                     36.1
 PW_GRID| spherical cutoff:                                                   NO
 PW_GRID|   Bounds   1            -36      35                Points:          72
 PW_GRID|   Bounds   2            -36      35                Points:          72
 PW_GRID|   Bounds   3            -38      38                Points:          77
 PW_GRID| Volume element (a.u.^3)  0.4848E-01     Volume (a.u.^3)     19349.8300
 PW_GRID| Grid span                                                    FULLSPACE
 PW_GRID|   Distribution                         Average         Max         Min
 PW_GRID|   G-Vectors                             9979.2       10008        9936
 PW_GRID|   G-Rays                                 138.6         139         138
 PW_GRID|   Real Space Points                     9979.2       11088        5544

 PW_GRID| Information for grid number                                          4
 PW_GRID| Grid distributed over                                    40 processors
 PW_GRID| Real space group dimensions                                    40    1
 PW_GRID| the grid is blocked:                                                NO
 PW_GRID| Cutoff [a.u.]                                                     12.0
 PW_GRID| spherical cutoff:                                                   NO
 PW_GRID|   Bounds   1            -21      20                Points:          42
 PW_GRID|   Bounds   2            -21      20                Points:          42
 PW_GRID|   Bounds   3            -22      21                Points:          44
 PW_GRID| Volume element (a.u.^3)  0.2493         Volume (a.u.^3)     19349.8300
 PW_GRID| Grid span                                                    FULLSPACE
 PW_GRID|   Distribution                         Average         Max         Min
 PW_GRID|   G-Vectors                             1940.4        2058        1848
 PW_GRID|   G-Rays                                  46.2          49          44
 PW_GRID|   Real Space Points                     1940.4        3696        1848

 PW_GRID| Information for grid number                                          5
 PW_GRID| Grid distributed over                                    40 processors
 PW_GRID| Real space group dimensions                                     5    8
 PW_GRID| the grid is blocked:                                                NO
 PW_GRID| Cutoff [a.u.]                                                      4.0
 PW_GRID| spherical cutoff:                                                   NO
 PW_GRID|   Bounds   1            -12      11                Points:          24
 PW_GRID|   Bounds   2            -12      11                Points:          24
 PW_GRID|   Bounds   3            -12      12                Points:          25
 PW_GRID| Volume element (a.u.^3)   1.344         Volume (a.u.^3)     19349.8300
 PW_GRID| Grid span                                                    FULLSPACE
 PW_GRID|   Distribution                         Average         Max         Min
 PW_GRID|   G-Vectors                              360.0         408         336
 PW_GRID|   G-Rays                                  15.0          17          14
 PW_GRID|   Real Space Points                      360.0         375         300

 PW_GRID| Information for grid number                                          6
 PW_GRID| Grid distributed over                                    40 processors
 PW_GRID| Real space group dimensions                                     5    8
 PW_GRID| the grid is blocked:                                                NO
 PW_GRID| Cutoff [a.u.]                                                      1.3
 PW_GRID| spherical cutoff:                                                   NO
 PW_GRID|   Bounds   1             -7       6                Points:          14
 PW_GRID|   Bounds   2             -7       6                Points:          14
 PW_GRID|   Bounds   3             -7       7                Points:          15
 PW_GRID| Volume element (a.u.^3)   6.582         Volume (a.u.^3)     19349.8300
 PW_GRID| Grid span                                                    FULLSPACE
 PW_GRID|   Distribution                         Average         Max         Min
 PW_GRID|   G-Vectors                               73.5          98          56
 PW_GRID|   G-Rays                                   5.2           7           4
 PW_GRID|   Real Space Points                       73.5          90          30

 PW_GRID| Information for grid number                                          7
 PW_GRID| Grid distributed over                                    40 processors
 PW_GRID| Real space group dimensions                                     5    8
 PW_GRID| the grid is blocked:                                                NO
 PW_GRID| Cutoff [a.u.]                                                      0.4
 PW_GRID| spherical cutoff:                                                   NO
 PW_GRID|   Bounds   1             -3       3                Points:           7
 PW_GRID|   Bounds   2             -3       3                Points:           7
 PW_GRID|   Bounds   3             -4       4                Points:           9
 PW_GRID| Volume element (a.u.^3)   43.88         Volume (a.u.^3)     19349.8300
 PW_GRID| Grid span                                                    FULLSPACE
 PW_GRID|   Distribution                         Average         Max         Min
 PW_GRID|   G-Vectors                               11.0          28           0
 PW_GRID|   G-Rays                                   1.6           4           0
 PW_GRID|   Real Space Points                       11.0          18           0

 PW_GRID| Information for grid number                                          8
 PW_GRID| Grid distributed over                                    40 processors
 PW_GRID| Real space group dimensions                                     5    8
 PW_GRID| the grid is blocked:                                                NO
 PW_GRID| Cutoff [a.u.]                                                      0.1
 PW_GRID| spherical cutoff:                                                   NO
 PW_GRID|   Bounds   1             -2       2                Points:           5
 PW_GRID|   Bounds   2             -2       2                Points:           5
 PW_GRID|   Bounds   3             -2       2                Points:           5
 PW_GRID| Volume element (a.u.^3)   154.8         Volume (a.u.^3)     19349.8300
 PW_GRID| Grid span                                                    FULLSPACE
 PW_GRID|   Distribution                         Average         Max         Min
 PW_GRID|   G-Vectors                                3.1          10           0
 PW_GRID|   G-Rays                                   0.6           2           0
 PW_GRID|   Real Space Points                        3.1           5           0

 PW_GRID| Information for grid number                                          9
 PW_GRID| Grid distributed over                                    40 processors
 PW_GRID| Real space group dimensions                                     5    8
 PW_GRID| the grid is blocked:                                                NO
 PW_GRID| Cutoff [a.u.]                                                      0.0
 PW_GRID| spherical cutoff:                                                   NO
 PW_GRID|   Bounds   1             -1       1                Points:           3
 PW_GRID|   Bounds   2             -1       1                Points:           3
 PW_GRID|   Bounds   3             -1       1                Points:           3
 PW_GRID| Volume element (a.u.^3)   716.7         Volume (a.u.^3)     19349.8300
 PW_GRID| Grid span                                                    FULLSPACE
 PW_GRID|   Distribution                         Average         Max         Min
 PW_GRID|   G-Vectors                                0.7           3           0
 PW_GRID|   G-Rays                                   0.2           1           0
 PW_GRID|   Real Space Points                        0.7           3           0

 PW_GRID| Information for grid number                                         10
 PW_GRID| Grid distributed over                                    40 processors
 PW_GRID| Real space group dimensions                                     5    8
 PW_GRID| the grid is blocked:                                                NO
 PW_GRID| Cutoff [a.u.]                                                      0.0
 PW_GRID| spherical cutoff:                                                   NO
 PW_GRID|   Bounds   1              0       0                Points:           1
 PW_GRID|   Bounds   2              0       0                Points:           1
 PW_GRID|   Bounds   3              0       0                Points:           1
 PW_GRID| Volume element (a.u.^3)  0.1935E+05     Volume (a.u.^3)     19349.8300
 PW_GRID| Grid span                                                    FULLSPACE
 PW_GRID|   Distribution                         Average         Max         Min
 PW_GRID|   G-Vectors                                0.0           1           0
 PW_GRID|   G-Rays                                   0.0           1           0
 PW_GRID|   Real Space Points                        0.0           1           0

 POISSON| Solver                                                        PERIODIC
 POISSON| Periodicity                                                        XYZ

 RS_GRID| Information for grid number                                          1
 RS_GRID|   Bounds   1           -108     107                Points:         216
 RS_GRID|   Bounds   2           -108     107                Points:         216
 RS_GRID|   Bounds   3           -115     115                Points:         231
 RS_GRID| Real space distribution over                                  5 groups
 RS_GRID| Real space distribution along direction                              2
 RS_GRID| Border size                                                         27
 RS_GRID| Real space distribution over                                  8 groups
 RS_GRID| Real space distribution along direction                              3
 RS_GRID| Border size                                                         27
 RS_GRID|   Distribution                         Average         Max         Min
 RS_GRID|   Planes                                  97.2          98          97
 RS_GRID|   Distribution                         Average         Max         Min
 RS_GRID|   Planes                                  82.9          83          82

 RS_GRID| Information for grid number                                          2
 RS_GRID|   Bounds   1            -63      62                Points:         126
 RS_GRID|   Bounds   2            -63      62                Points:         126
 RS_GRID|   Bounds   3            -66      65                Points:         132
 RS_GRID| Real space distribution over                                  5 groups
 RS_GRID| Real space distribution along direction                              2
 RS_GRID| Border size                                                         26
 RS_GRID| Real space distribution over                                  8 groups
 RS_GRID| Real space distribution along direction                              3
 RS_GRID| Border size                                                         26
 RS_GRID|   Distribution                         Average         Max         Min
 RS_GRID|   Planes                                  77.2          78          77
 RS_GRID|   Distribution                         Average         Max         Min
 RS_GRID|   Planes                                  68.5          69          68

 RS_GRID| Information for grid number                                          3
 RS_GRID|   Bounds   1            -36      35                Points:          72
 RS_GRID|   Bounds   2            -36      35                Points:          72
 RS_GRID|   Bounds   3            -38      38                Points:          77
 RS_GRID| Real space fully replicated
 RS_GRID| Group size                                                           1

 RS_GRID| Information for grid number                                          4
 RS_GRID|   Bounds   1            -21      20                Points:          42
 RS_GRID|   Bounds   2            -21      20                Points:          42
 RS_GRID|   Bounds   3            -22      21                Points:          44
 RS_GRID| Real space fully replicated
 RS_GRID| Group size                                                           1

 RS_GRID| Information for grid number                                          5
 RS_GRID|   Bounds   1            -12      11                Points:          24
 RS_GRID|   Bounds   2            -12      11                Points:          24
 RS_GRID|   Bounds   3            -12      12                Points:          25
 RS_GRID| Real space fully replicated
 RS_GRID| Group size                                                           1

 RS_GRID| Information for grid number                                          6
 RS_GRID|   Bounds   1             -7       6                Points:          14
 RS_GRID|   Bounds   2             -7       6                Points:          14
 RS_GRID|   Bounds   3             -7       7                Points:          15
 RS_GRID| Real space fully replicated
 RS_GRID| Group size                                                           1

 RS_GRID| Information for grid number                                          7
 RS_GRID|   Bounds   1             -3       3                Points:           7
 RS_GRID|   Bounds   2             -3       3                Points:           7
 RS_GRID|   Bounds   3             -4       4                Points:           9
 RS_GRID| Real space fully replicated
 RS_GRID| Group size                                                           1

 RS_GRID| Information for grid number                                          8
 RS_GRID|   Bounds   1             -2       2                Points:           5
 RS_GRID|   Bounds   2             -2       2                Points:           5
 RS_GRID|   Bounds   3             -2       2                Points:           5
 RS_GRID| Real space fully replicated
 RS_GRID| Group size                                                           1

 RS_GRID| Information for grid number                                          9
 RS_GRID|   Bounds   1             -1       1                Points:           3
 RS_GRID|   Bounds   2             -1       1                Points:           3
 RS_GRID|   Bounds   3             -1       1                Points:           3
 RS_GRID| Real space fully replicated
 RS_GRID| Group size                                                           1

 RS_GRID| Information for grid number                                         10
 RS_GRID|   Bounds   1              0       0                Points:           1
 RS_GRID|   Bounds   2              0       0                Points:           1
 RS_GRID|   Bounds   3              0       0                Points:           1
 RS_GRID| Real space fully replicated
 RS_GRID| Group size                                                           1

 Spin 1

 Number of electrons:                                                       1081
 Number of occupied orbitals:                                               1081
 Number of molecular orbitals:                                              1081

 Spin 2

 Number of electrons:                                                       1080
 Number of occupied orbitals:                                               1080
 Number of molecular orbitals:                                              1080

 Number of orbital functions:                                               1620
 Number of independent orbital functions:                                   1620

 Extrapolation method: initial_guess


 SCF WAVEFUNCTION OPTIMIZATION

  Step     Update method      Time    Convergence         Total energy    Change
  ------------------------------------------------------------------------------
     1 NoMix/Diag. 0.40E+00    5.8     0.00308073     -8111.7778496760 -8.11E+03
     2 Broy./Diag. 0.40E+00    9.7     0.00153124     -8111.7765891228  1.26E-03
     3 Broy./Diag. 0.40E+00   10.1     0.00045190     -8111.7776561004 -1.07E-03
     4 Broy./Diag. 0.40E+00    9.7     0.00018488     -8111.7788902991 -1.23E-03
     5 Broy./Diag. 0.40E+00    9.7     0.00007630     -8111.7789212877 -3.10E-05
     6 Broy./Diag. 0.40E+00    9.7     0.00002595     -8111.7783025251  6.19E-04
     7 Broy./Diag. 0.40E+00    9.7     0.00003557     -8111.7781465082  1.56E-04
     8 Broy./Diag. 0.40E+00    9.6     0.00001708     -8111.7781336476  1.29E-05
     9 Broy./Diag. 0.40E+00    9.7     0.00001018     -8111.7781046601  2.90E-05
    10 Broy./Diag. 0.40E+00    9.6     0.00000330     -8111.7781367763 -3.21E-05

  *** SCF run converged in    10 steps ***


  Electronic density on regular grids:      -2160.9999999994        0.0000000006
  Core density on regular grids:             2159.9999999994       -0.0000000006
  Total charge density on r-space grids:       -1.0000000000
  Total charge density g-space grids:          -1.0000000000

  Overlap energy of the core charge distribution:               0.00000000000203
  Self energy of the core charge distribution:             -17095.63438313942970
  Core Hamiltonian energy:                                   4650.80616915124210
  Hartree energy:                                            5621.21706103647102
  Exchange-correlation energy:                              -1307.30995325294634

  DFT+U energy:                                                19.14296942840023

  Total energy:                                             -8111.77813677625909

  outer SCF iter =    1 RMS gradient =   0.33E-05 energy =      -8111.7781367763
  outer SCF loop converged in   1 iterations or   10 steps


  Integrated absolute spin density  :                               1.0926439495
  Ideal and single determinant S**2 :                    0.750000       0.755037

 !-----------------------------------------------------------------------------!
                     Mulliken Population Analysis

 #  Atom  Element  Kind  Atomic population (alpha,beta) Net charge  Spin moment
       1     Ti       1         5.244761     5.244767     1.510471    -0.000006
       2     Ti       1         5.244700     5.244698     1.510602     0.000003
       3     Ti       1         5.244695     5.244880     1.510425    -0.000184
       4     Ti       1         5.245507     5.244985     1.509508     0.000522
       5     Ti       1         5.244695     5.244707     1.510598    -0.000011
       6     Ti       1         5.244705     5.244702     1.510593     0.000003
       7     Ti       1         5.244762     5.244768     1.510471    -0.000006
       8     Ti       1         5.244807     5.244822     1.510372    -0.000015
       9     Ti       1         5.244695     5.244707     1.510598    -0.000011
      10     Ti       1         5.244705     5.244702     1.510593     0.000003
      11     Ti       1         5.244694     5.244879     1.510427    -0.000184
      12     Ti       1         5.245355     5.245363     1.509283    -0.000008
      13     Ti       1         5.245094     5.245079     1.509827     0.000015
      14     Ti       1         5.245357     5.245365     1.509278    -0.000008
      15     Ti       1         5.244762     5.244767     1.510471    -0.000006
      16     Ti       1         5.244700     5.244698     1.510602     0.000003
      17     Ti       1         5.244762     5.244768     1.510471    -0.000006
      18     Ti       1         5.244807     5.244822     1.510372    -0.000015
      19     Ti       1         5.244721     5.244725     1.510554    -0.000003
      20     Ti       1         5.244710     5.244707     1.510584     0.000003
      21     Ti       1         5.245213     5.245218     1.509569    -0.000004
      22     Ti       1         5.245745     5.245208     1.509047     0.000537
      23     Ti       1         5.244746     5.244748     1.510506    -0.000002
      24     Ti       1         5.244708     5.244705     1.510586     0.000003
      25     Ti       1         5.244713     5.244717     1.510570    -0.000004
      26     Ti       1         5.244730     5.244746     1.510524    -0.000016
      27     Ti       1         5.244746     5.244748     1.510506    -0.000002
      28     Ti       1         5.244709     5.244705     1.510586     0.000003
      29     Ti       1         5.245216     5.245220     1.509564    -0.000004
      30     Ti       1         5.245350     5.245358     1.509293    -0.000008
      31     Ti       1         5.245041     5.245049     1.509910    -0.000008
      32     Ti       1         5.245347     5.245355     1.509298    -0.000008
      33     Ti       1         5.244721     5.244725     1.510554    -0.000003
      34     Ti       1         5.244710     5.244707     1.510584     0.000003
      35     Ti       1         5.244714     5.244717     1.510569    -0.000004
      36     Ti       1         5.244730     5.244746     1.510524    -0.000016
      37     Ti       1         5.244870     5.244877     1.510253    -0.000007
      38     Ti       1         5.244999     5.245013     1.509988    -0.000015
      39     Ti       1         5.244592     5.244763     1.510645    -0.000170
      40     Ti       1         5.243512     5.248796     1.507692    -0.005284
      41     Ti       1         5.244993     5.245005     1.510002    -0.000012
      42     Ti       1         5.244988     5.245003     1.510009    -0.000014
      43     Ti       1         5.244872     5.244878     1.510250    -0.000007
      44     Ti       1         5.244921     5.244908     1.510171     0.000012
      45     Ti       1         5.244993     5.245005     1.510002    -0.000012
      46     Ti       1         5.244989     5.245003     1.510008    -0.000014
      47     Ti       1         5.244599     5.244770     1.510631    -0.000171
      48     Ti       1         5.245594     5.245372     1.509034     0.000222
      49     Ti       1         5.245157     5.245141     1.509703     0.000016
      50     Ti       1         5.245599     5.245377     1.509023     0.000222
      51     Ti       1         5.244870     5.244877     1.510253    -0.000007
      52     Ti       1         5.244999     5.245013     1.509988    -0.000015
      53     Ti       1         5.244872     5.244878     1.510250    -0.000007
      54     Ti       1         5.244921     5.244909     1.510171     0.000012
      55     Ti       1         5.244887     5.244884     1.510229     0.000003
      56     Ti       1         5.244899     5.244924     1.510177    -0.000025
      57     Ti       1         5.247792     5.243998     1.508210     0.003794
      58     Ti       1         5.789809     4.787238     1.422953     1.002571
      59     Ti       1         5.247082     5.245828     1.507089     0.001254
      60     Ti       1         5.244891     5.244916     1.510193    -0.000025
      61     Ti       1         5.244888     5.244885     1.510227     0.000003
      62     Ti       1         5.244601     5.244483     1.510916     0.000119
      63     Ti       1         5.247083     5.245829     1.507088     0.001254
      64     Ti       1         5.244891     5.244916     1.510193    -0.000025
      65     Ti       1         5.247786     5.243999     1.508215     0.003787
      66     Ti       1         5.246577     5.245471     1.507952     0.001106
      67     Ti       1         5.245359     5.245071     1.509570     0.000289
      68     Ti       1         5.246591     5.245484     1.507925     0.001107
      69     Ti       1         5.244887     5.244884     1.510229     0.000003
      70     Ti       1         5.244899     5.244924     1.510177    -0.000025
      71     Ti       1         5.244888     5.244885     1.510227     0.000003
      72     Ti       1         5.244601     5.244483     1.510916     0.000119
      73     Ti       1         5.244667     5.244664     1.510669     0.000003
      74     Ti       1         5.244661     5.244673     1.510667    -0.000012
      75     Ti       1         5.247636     5.243825     1.508539     0.003811
      76     Ti       1         5.242529     5.247430     1.510042    -0.004901
      77     Ti       1         5.246462     5.245286     1.508252     0.001176
      78     Ti       1         5.244659     5.244671     1.510670    -0.000012
      79     Ti       1         5.244669     5.244667     1.510664     0.000002
      80     Ti       1         5.244784     5.244772     1.510444     0.000012
      81     Ti       1         5.246463     5.245287     1.508250     0.001176
      82     Ti       1         5.244659     5.244671     1.510670    -0.000012
      83     Ti       1         5.247627     5.243821     1.508552     0.003806
      84     Ti       1         5.245379     5.245163     1.509458     0.000217
      85     Ti       1         5.245137     5.244855     1.510008     0.000282
      86     Ti       1         5.245386     5.245170     1.509444     0.000217
      87     Ti       1         5.244667     5.244664     1.510669     0.000003
      88     Ti       1         5.244660     5.244672     1.510667    -0.000012
      89     Ti       1         5.244669     5.244667     1.510664     0.000002
      90     Ti       1         5.244784     5.244772     1.510444     0.000012
      91     O        2         3.379670     3.379693    -0.759363    -0.000023
      92     O        2         3.379686     3.379698    -0.759384    -0.000012
      93     O        2         3.379750     3.379753    -0.759503    -0.000003
      94     O        2         3.379915     3.379913    -0.759827     0.000002
      95     O        2         3.380747     3.380834    -0.761582    -0.000087
      96     O        2         3.380752     3.380839    -0.761591    -0.000087
      97     O        2         3.379654     3.379698    -0.759352    -0.000045
      98     O        2         3.379654     3.379698    -0.759352    -0.000045
      99     O        2         3.379695     3.379707    -0.759402    -0.000012
     100     O        2         3.379660     3.379683    -0.759343    -0.000023
     101     O        2         3.379913     3.379911    -0.759824     0.000002
     102     O        2         3.379753     3.379756    -0.759509    -0.000003
     103     O        2         3.379745     3.379749    -0.759494    -0.000005
     104     O        2         3.379734     3.379739    -0.759473    -0.000005
     105     O        2         3.379853     3.379855    -0.759708    -0.000001
     106     O        2         3.380201     3.380191    -0.760392     0.000010
     107     O        2         3.379695     3.379707    -0.759401    -0.000012
     108     O        2         3.379660     3.379683    -0.759343    -0.000023
     109     O        2         3.379753     3.379756    -0.759509    -0.000003
[...]
       0.22540104       0.22550437       0.22586528       0.22592641
       0.22729295       0.22761629       0.22764410       0.22774768
       0.22789748       0.22913474       0.23009743       0.23830001
       0.23841002       0.23864014       0.23886693       0.23893477
       0.23896411       0.23919047       0.23927869       0.23930744
       0.23937306       0.23955753       0.23962357       0.23986428
       0.23997087       0.24063878       0.24145373       0.24195897
       0.24209152       0.24242808       0.24256580       0.24266540
       0.24300343       0.24301644       0.24318116       0.24369526
       0.24376667       0.24519041       0.24527129       0.24573002
       0.24576469       0.24584775       0.24593920       0.24605100
       0.24607967       0.24618287       0.24653679       0.24673366
       0.24683707       0.24692148       0.24695561       0.24702337
       0.24830332       0.25196041       0.25212351       0.25233750
       0.25239079       0.25250762       0.25267715       0.25272362
       0.25283705       0.25296864       0.25302403       0.25310606
       0.25327442       0.25352255       0.25374022       0.25376778
       0.25440693       0.25443302       0.25467747       0.25498414
       0.25501411       0.25523997       0.25555663       0.25564388
       0.25604871       0.25643881       0.25648462       0.25736034
       0.25764747       0.25808907       0.25826905       0.25995809
       0.26072553       0.26072864       0.26074970       0.26082263
       0.26103479       0.26119260       0.26122032       0.26173490
       0.26176290       0.26187168       0.26195824       0.26216732
       0.26217457       0.26217787       0.26229855       0.26290414
       0.26291578       0.26319392       0.26359256       0.26404697
       0.26421095       0.26425379       0.26432866       0.26441425
       0.26449219       0.26454520       0.26474901       0.26500323
       0.26502685       0.26518181       0.26550172       0.26562593
       0.26690918       0.26707321       0.26709329       0.26746867
       0.26751206       0.26799245       0.26816583       0.26993758
       0.27362565       0.27370414       0.27414926       0.27423991
       0.27436539       0.27469010       0.27499562       0.27501665
       0.27912643       0.27928620       0.27929898       0.27934091
       0.27950761       0.27964925       0.27969564       0.28078076
       0.28094936       0.28103076       0.28112327       0.28120629
       0.28120847       0.28137022       0.28140944       0.28156053
       0.28166716       0.28172276       0.28213589       0.28221810
       0.28275222       0.28280997       0.28284684       0.28288257
       0.28323879       0.28325546       0.28365010       0.28373448
       0.28394198       0.28409743       0.28422657       0.28434676
       0.28469201       0.28473114       0.28475486       0.28492130
       0.28501057       0.28501443       0.28508594       0.28543062
       0.28554039       0.28560100       0.28575164       0.28584652
       0.28613406       0.28650668       0.28657713       0.28663975
       0.28675599       0.28678611       0.28846850       0.28906423
       0.28939376       0.28940749       0.29135289       0.29164852
       0.29220627       0.29343660       0.29374370       0.29398852
       0.29443228       0.29493835       0.29509532       0.29528816
       0.29552455       0.29571579       0.29583486       0.29587037
       0.29660626       0.29683771       0.30034677       0.30036810
       0.30037802       0.30048862       0.30053300       0.30054447
       0.30067367       0.30073839       0.30079841       0.30099081
       0.30140336       0.30144629       0.30188516       0.30204929
       0.30240534       0.30298855       0.30468370       0.30469333
       0.30487944       0.30503031       0.30525615       0.30532275
       0.30553140       0.30609246       0.30935987       0.30972263
       0.30991583       0.31024674       0.31215115       0.31245995
       0.31253623       0.31258005       0.31258863       0.31286573
       0.31304548       0.31326117       0.31432136       0.31617364
       0.31634181       0.31674836       0.31685135       0.32041186
       0.32054390       0.32059608       0.32074027       0.32096155
       0.32117698       0.32129035       0.32142850       0.32567852
       0.32584505       0.32629338       0.32661452       0.32742320
       0.32742777       0.33155337       0.33185751       0.34063549
 Fermi Energy [eV] :    9.269163
  
  Lowest eigenvalues of the unoccupied subspace spin            1
 ---------------------------------------------

  
  Lowest eigenvalues of the unoccupied subspace spin            2
 ---------------------------------------------


 ENERGY| Total FORCE_EVAL ( QS ) energy (a.u.):            -8111.778136776259089


 -------------------------------------------------------------------------------
 -                                                                             -
 -                                DBCSR STATISTICS                             -
 -                                                                             -
 -------------------------------------------------------------------------------
 COUNTER                                    TOTAL       BLAS       SMM       ACC
 flops     4 x    25 x     4             25920000     100.0%      0.0%      0.0%
 flops    10 x    25 x     4             32400000     100.0%      0.0%      0.0%
 flops     4 x    25 x    10             32400000     100.0%      0.0%      0.0%
 flops    10 x    25 x    10             40500000     100.0%      0.0%      0.0%
 flops     4 x    24 x     4             49766400     100.0%      0.0%      0.0%
 flops    10 x    24 x     4             62208000     100.0%      0.0%      0.0%
 flops     4 x    24 x    10             62208000     100.0%      0.0%      0.0%
 flops    10 x    24 x    10             77760000     100.0%      0.0%      0.0%
 flops     4 x     4 x    56            321108480     100.0%      0.0%      0.0%
 flops     4 x     4 x    57            326842560     100.0%      0.0%      0.0%
 flops    10 x     4 x    56            399168000     100.0%      0.0%      0.0%
 flops     4 x    10 x    56            399168000     100.0%      0.0%      0.0%
 flops    10 x     4 x    57            406296000     100.0%      0.0%      0.0%
 flops     4 x    10 x    57            406296000     100.0%      0.0%      0.0%
 flops    10 x    10 x    56            504504000     100.0%      0.0%      0.0%
 flops    10 x    10 x    57            513513000     100.0%      0.0%      0.0%
 flops     4 x     4 x    32           2201886720     100.0%      0.0%      0.0%
 flops    10 x     4 x    32           2737152000     100.0%      0.0%      0.0%
 flops     4 x    10 x    32           2737152000     100.0%      0.0%      0.0%
 flops     4 x    32 x     4           3284582400     100.0%      0.0%      0.0%
 flops    10 x    10 x    32           3459456000     100.0%      0.0%      0.0%
 flops    10 x    32 x     4           4105728000     100.0%      0.0%      0.0%
 flops     4 x    32 x    10           4105728000     100.0%      0.0%      0.0%
 flops    10 x    32 x    10           5132160000     100.0%      0.0%      0.0%
 flops     4 x     4 x    64           9541509120     100.0%      0.0%      0.0%
 flops    10 x     4 x    64          11860992000     100.0%      0.0%      0.0%
 flops     4 x    10 x    64          11860992000     100.0%      0.0%      0.0%
 flops    10 x    10 x    64          14990976000     100.0%      0.0%      0.0%
 flops inhomo. stacks                           0       0.0%      0.0%      0.0%
 flops total                        79.678373E+09     100.0%      0.0%      0.0%
 flops max/rank                      2.149528E+09     100.0%      0.0%      0.0%
 matmuls inhomo. stacks                         0       0.0%      0.0%      0.0%
 matmuls total                           23533200     100.0%      0.0%      0.0%
 number of processed stacks                 83360     100.0%      0.0%      0.0%
 average stack size                                   282.3       0.0       0.0
 marketing flops                   141.780566E+09
 -------------------------------------------------------------------------------
 # multiplications                             25
 max memory usage/rank             416.821248E+06
 # max total images/rank                        5
 # max 3D layers                                1
 # MPI messages exchanged                   63000
 MPI messages size (bytes):
  total size                         6.490199E+09
  min size                          40.960000E+03
  max size                         280.704000E+03
  average size                     103.019031E+03
 MPI breakdown and total messages size (bytes):
             size <=      128                   0                        0
       128 < size <=     8192                   0                        0
      8192 < size <=    32768                   0                        0
     32768 < size <=   131072               49752               3643367040
    131072 < size <=  4194304               13248               2846832480
   4194304 < size <= 16777216                   0                        0
  16777216 < size                               0                        0
 -------------------------------------------------------------------------------

 *** WARNING in dbcsr/mm/dbcsr_mm.F:268 :: Using a non-square number of ***
 *** MPI ranks might lead to poor performance.                          ***
 *** Used ranks: 40                                                     ***
 *** Suggested: 36 81                                                   ***

 -------------------------------------------------------------------------------

 MEMORY| Estimated peak process memory [MiB]                                 400

 -------------------------------------------------------------------------------
 ----                             MULTIGRID INFO                            ----
 -------------------------------------------------------------------------------
 count for grid        1:         884880          cutoff [a.u.]          325.00
 count for grid        2:         501748          cutoff [a.u.]          108.33
 count for grid        3:         797654          cutoff [a.u.]           36.11
 count for grid        4:        1053938          cutoff [a.u.]           12.04
 count for grid        5:         551064          cutoff [a.u.]            4.01
 count for grid        6:              0          cutoff [a.u.]            1.34
 count for grid        7:              0          cutoff [a.u.]            0.45
 count for grid        8:              0          cutoff [a.u.]            0.15
 count for grid        9:              0          cutoff [a.u.]            0.05
 count for grid       10:              0          cutoff [a.u.]            0.02
 total gridlevel count  :        3789284

 -------------------------------------------------------------------------------
 -                                                                             -
 -                         MESSAGE PASSING PERFORMANCE                         -
 -                                                                             -
 -------------------------------------------------------------------------------

 ROUTINE             CALLS      AVE VOLUME [Bytes]
 MP_Group               35
 MP_Bcast             2303                 168180.
 MP_Allreduce          615                   1545.
 MP_Sync               366
 MP_Alltoall          1283                1747598.
 MP_ISendRecv        13104                  15276.
 MP_Wait             20228
 MP_comm_split          20
 MP_ISend             8114                 129023.
 MP_IRecv             8088                 128626.
 MP_Recv                66                 414720.
 MP_Memory            3858
 -------------------------------------------------------------------------------


 -------------------------------------------------------------------------------
 -                                                                             -
 -                           R E F E R E N C E S                               -
 -                                                                             -
 -------------------------------------------------------------------------------
 
 CP2K version 6.1, the CP2K developers group (2018).
 CP2K is freely available from https://www.cp2k.org/ .

 Schuett, Ole; Messmer, Peter; Hutter, Juerg; VandeVondele, Joost. 
 Electronic Structure Calculations on Graphics Processing Units, John Wiley & Sons, Ltd, 173-190 (2016). 
 GPU-Accelerated Sparse Matrix-Matrix Multiplication for Linear Scaling Density Functional Theory.
 http://dx.doi.org/10.1002/9781118670712.ch8


 Borstnik, U; VandeVondele, J; Weber, V; Hutter, J. 
 PARALLEL COMPUTING, 40 (5-6), 47-58 (2014). 
 Sparse matrix multiplication: The distributed block-compressed sparse
 row library.
 http://dx.doi.org/10.1016/j.parco.2014.03.012


 Hutter, J; Iannuzzi, M; Schiffmann, F; VandeVondele, J. 
 WILEY INTERDISCIPLINARY REVIEWS-COMPUTATIONAL MOLECULAR SCIENCE, 4 (1), 15-25 (2014). 
 CP2K: atomistic simulations of condensed matter systems.
 http://dx.doi.org/10.1002/wcms.1159


 VandeVondele, J; Hutter, J. 
 JOURNAL OF CHEMICAL PHYSICS, 127 (11), 114105 (2007). 
 Gaussian basis sets for accurate calculations on molecular systems in
 gas and condensed phases.
 http://dx.doi.org/10.1063/1.2770708


 Krack, M. 
 THEORETICAL CHEMISTRY ACCOUNTS, 114 (1-3), 145-152 (2005). 
 Pseudopotentials for H to Kr optimized for gradient-corrected
 exchange-correlation functionals.
 http://dx.doi.org/10.1007/s00214-005-0655-y


 VandeVondele, J; Krack, M; Mohamed, F; Parrinello, M; Chassaing, T;
 Hutter, J. COMPUTER PHYSICS COMMUNICATIONS, 167 (2), 103-128 (2005). 
 QUICKSTEP: Fast and accurate density functional calculations using a
 mixed Gaussian and plane waves approach.
 http://dx.doi.org/10.1016/j.cpc.2004.12.014


 Frigo, M; Johnson, SG. 
 PROCEEDINGS OF THE IEEE, 93 (2), 216-231 (2005). 
 The design and implementation of FFTW3.
 http://dx.doi.org/10.1109/JPROC.2004.840301


 Hartwigsen, C; Goedecker, S; Hutter, J. 
 PHYSICAL REVIEW B, 58 (7), 3641-3662 (1998). 
 Relativistic separable dual-space Gaussian pseudopotentials from H to Rn.
 http://dx.doi.org/10.1103/PhysRevB.58.3641


 Dudarev, SL; Botton, GA; Savrasov, SY; Humphreys, CJ; Sutton, AP. 
 PHYSICAL REVIEW B, 57 (3), 1505-1509 (1998). 
 Electron-energy-loss spectra and the structural stability of
 nickel oxide: An LSDA+U study.
 http://dx.doi.org/10.1103/PhysRevB.57.1505


 Lippert, G; Hutter, J; Parrinello, M. 
 MOLECULAR PHYSICS, 92 (3), 477-487 (1997). 
 A hybrid Gaussian and plane wave density functional scheme.
 http://dx.doi.org/10.1080/002689797170220


 Dudarev, SL; Manh, DN; Sutton, AP. 
 PHILOSOPHICAL MAGAZINE B, 75 (5), 613-628 (1997). 
 Effect of Mott-Hubbard correlations on the electronic
 structure and structural stability of uranium dioxide.
 http://dx.doi.org/10.1080/13642819708202343


 Perdew, JP; Burke, K; Ernzerhof, M. 
 PHYSICAL REVIEW LETTERS, 77 (18), 3865-3868 (1996). 
 Generalized gradient approximation made simple.
 http://dx.doi.org/10.1103/PhysRevLett.77.3865


 Goedecker, S; Teter, M; Hutter, J. 
 PHYSICAL REVIEW B, 54 (3), 1703-1710 (1996). 
 Separable dual-space Gaussian pseudopotentials.
 http://dx.doi.org/10.1103/PhysRevB.54.1703


 -------------------------------------------------------------------------------
 -                                                                             -
 -                                T I M I N G                                  -
 -                                                                             -
 -------------------------------------------------------------------------------
 SUBROUTINE                       CALLS  ASD         SELF TIME        TOTAL TIME
                                MAXIMUM       AVERAGE  MAXIMUM  AVERAGE  MAXIMUM
 CP2K                                 1  1.0    0.027    0.029  110.328  110.329
 qs_energies                          1  2.0    0.000    0.000  110.066  110.068
 scf_env_do_scf                       1  3.0    0.000    0.000   97.164   97.406
 scf_env_do_scf_inner_loop           10  4.0    0.001    0.001   97.164   97.406
 qs_ks_update_qs_env                 10  5.0    0.000    0.001   49.235   49.286
 rebuild_ks_matrix                   10  6.0    0.000    0.000   49.228   49.279
 qs_ks_build_kohn_sham_matrix        10  7.0    0.108    0.159   49.228   49.279
 qs_rho_update_rho                   11  5.0    0.000    0.000   41.849   41.850
 calculate_rho_elec                  22  6.0   37.044   37.861   41.849   41.850
 sum_up_and_integrate                10  8.0    0.022    0.024   38.104   38.104
 integrate_v_rspace                  20  9.0   34.320   35.112   38.082   38.083
 pw_transfer                        631  9.5    0.028    0.034   12.438   12.555
 fft_wrap_pw1pw2                    611 10.5    0.004    0.005   12.364   12.483
 fft_wrap_pw1pw2_330                233 11.6    0.639    0.683   11.883   12.000
 fft3d_ps                           611 12.5    5.632    6.175   10.224   10.325
 qs_vxc_create                       10  8.0    0.000    0.000   10.203   10.233
 xc_vxc_pw_create                    10  9.0    0.139    0.159   10.202   10.233
 qs_energies_init_hamiltonians        1  3.0    0.000    0.000    8.000    8.000
 qs_scf_new_mos                      10  5.0    0.000    0.000    7.814    7.896
 build_core_hamiltonian_matrix        1  4.0    0.000    0.000    7.041    7.578
 eigensolver                         20  6.0    0.001    0.002    7.297    7.303
 xc_rho_set_and_dset_create          10 10.0    0.064    0.072    5.606    5.826
 cp_fm_syevd                         20  7.0    0.000    0.000    5.755    5.761
 cp_fm_redistribute_end              20  8.0    1.738    5.710    1.747    5.718
 cp_fm_syevd_base                    20  8.0    3.948    5.647    3.948    5.647
 rs_pw_transfer                     424  9.4    0.003    0.004    3.857    5.324
 density_rs2pw                       22  7.0    0.002    0.002    4.350    5.292
 build_core_ppnl                      1  5.0    4.303    4.633    4.303    4.633
 mp_alltoall_z22v                   611 14.5    3.782    4.360    3.782    4.360
 init_scf_run                         1  3.0    0.000    0.000    4.359    4.360
 scf_env_initial_rho_setup            1  4.0    0.000    0.000    4.334    4.334
 mp_waitany                        4040 11.3    2.115    3.547    2.115    3.547
 rs_pw_transfer_RS2PW_330            24  8.9    0.343    0.390    2.077    3.532
 build_core_ppl                       1  5.0    2.560    2.823    2.560    2.823
 x_to_yz                            190 13.9    0.524    0.580    2.480    2.737
 potential_pw2rs                     20 10.0    0.003    0.003    2.459    2.462
 yz_to_x                            169 13.1    0.250    0.269    2.074    2.373
 xc_functional_eval                  10 11.0    0.000    0.000    1.998    2.224
 pbe_lsd_eval                        10 12.0    1.997    2.224    1.997    2.224
 -------------------------------------------------------------------------------

 The number of warnings for this run is : 1
 
 -------------------------------------------------------------------------------
  **** **** ******  **  PROGRAM ENDED AT                 2019-08-02 13:33:32.830
 ***** ** ***  *** **   PROGRAM RAN ON            cpn-p28-39.cbls.ccr.buffalo.ed
 **    ****   ******    PROGRAM RAN BY                                  pavankum
 ***** **    ** ** **   PROGRAM PROCESS ID                                 46882
  **** **  *******  **  PROGRAM STOPPED IN /projects/academic/mdupuis2/pavan/VAB
                                           _calculation/results_for_paper/7.TiO2
                                           _pbe_plus_U10/point_0.9
