      77
 i =        1, E =     -1335.6041875477
 Fe        18.3489155419       -0.0000002430       -0.0001484692
 Fe        15.2788734984        0.0000022759        0.0000486159
 Fe        12.2149553365       -0.0000033852        0.0001158936
 Fe         9.1308533163       -0.0000001699       -0.0000312608
 Fe         6.1174219215        0.0000052990        0.0000152975
 Fe         3.0937186886        0.0000025223        0.0001486412
 Fe         0.0140752344       -0.0000022057       -0.0000342788
  O        18.3315599327        0.0000066397        2.1268020333
  O        18.3315002627       -0.0000049469       -2.1267838760
  O        19.8529187952       -1.2379393657       -0.0000536770
  O        19.8529191823        1.2379373172       -0.0000875204
  O        15.2788587574        0.0000166803        2.1260628030
  O        15.2787983033       -0.0000119784       -2.1260190657
  O        16.8096323162       -1.2378019431       -0.0000121121
  O        16.8096328739        1.2378035510       -0.0000467149
  O        12.2397431453        0.0000202777        2.1326902699
  O        12.2397219113       -0.0000288897       -2.1325521170
  O        13.7664844626       -1.2380005595        0.0000368111
  O        13.7664812405        1.2379981881       -0.0000052550
  O         9.2197654970       -0.0002945697        2.1450091458
  O         9.2200590129        0.0002943249       -2.1451530773
  O        10.7329991610       -1.2347005578        0.0000038409
  O        10.7330018662        1.2346985023       -0.0000391384
  O         6.1183081931        0.0003329283        2.2740927842
  O         6.1181317048       -0.0003171072       -2.2740639161
  O         7.7684819397       -1.2996648656       -0.0008683148
  O         7.7684913339        1.2996661203        0.0003899627
  O         3.0108097916       -0.0001581048        2.1525835253
  O         3.0110249328        0.0001584148       -2.1522324766
  O         4.4657724564       -1.3035223764       -0.0004443448
  O         4.4657802810        1.3035249159        0.0009279071
  O        -0.0130937996        0.0000337640        2.1326444803
  O        -0.0131121651       -0.0000364029       -2.1327274958
  O         1.5016428668       -1.2363791351       -0.0000001635
  O         1.5016387124        1.2363755190       -0.0000731511
  H        18.3788346890       -0.8053200826       -2.6960554422
  H        18.3788240913        0.8053112406       -2.6960563704
  H        18.3789007241       -0.8053333658        2.6960518135
  H        18.3789515278        0.8053488272        2.6960426046
  H        19.8681719157       -2.2352568892       -0.0000194586
  H        19.8681741429        2.2352547554       -0.0000282083
  H        15.2264126097       -0.8052885118       -2.6954526407
  H        15.2265416269        0.8052618813       -2.6954712792
  H        15.2266410122       -0.8052925289        2.6954817703
  H        15.2264938454        0.8053261539        2.6954637379
  H        16.8083752261       -2.2354051829       -0.0000009778
  H        16.8083793008        2.2354069404       -0.0000140661
  H        12.0967686134       -0.8045934330       -2.6889175708
  H        12.0971303291        0.8046017611       -2.6889192246
  H        12.0972458833       -0.8046507783        2.6890772267
  H        12.0968563868        0.8046259693        2.6890692434
  H        13.7487918400       -2.2353279672        0.0000095536
  H        13.7487804704        2.2353248758        0.0000109487
  H         9.0349832340       -0.8062385044       -2.6953128123
  H         9.0361754918        0.8065824249       -2.6956779869
  H         9.0359007088       -0.8066338380        2.6953438387
  H         9.0347100708        0.8062714250        2.6950020711
  H        10.6869794710       -2.2305406573       -0.0000320057
  H        10.6869961604        2.2305396193        0.0002780576
  H         6.1129110769       -0.8073228541       -2.8435421080
  H         6.1129515992        0.8069255683       -2.8431959211
  H         6.1128628091       -0.8069160273        2.8432223654
  H         6.1128453183        0.8073493223        2.8435603386
  H         7.7307348006       -2.2959173537       -0.0000989655
  H         7.7307257538        2.2959142999       -0.0006447450
  H         3.1889656390       -0.8064034280       -2.6970666755
  H         3.1879578803        0.8066823166       -2.6973781369
  H         3.1876424948       -0.8067005934        2.6976966312
  H         3.1887359940        0.8064170846        2.6973633682
  H         4.5025176370       -2.2956800624        0.0006833637
  H         4.5024966434        2.2956911657        0.0000890753
  H         0.1248515462       -0.8047385694       -2.6905081458
  H         0.1247153209        0.8046971473       -2.6905034773
  H         0.1247819235       -0.8047204319        2.6903412332
  H         0.1250155219        0.8047462114        2.6903377076
  H         1.5455022714       -2.2304165287       -0.0002614991
  H         1.5455081009        2.2304101141        0.0000099723
      77
 i =        2, E =     -1335.6078021439
 Fe        18.3243073913        0.0000005826        0.0001922262
 Fe        15.2801785123        0.0000018340        0.0000353427
 Fe        12.2107603677       -0.0000033694        0.0000925012
 Fe         9.1522488059        0.0000019977        0.0001958827
 Fe         6.1177392100        0.0000090969        0.0000139829
 Fe         3.0958337475       -0.0000003905        0.0001427569
 Fe         0.0161766583       -0.0000016222       -0.0000326743
  O        18.3217353422        0.0000163173        2.1353341199
  O        18.3216011778       -0.0000123566       -2.1352948133
  O        19.8594885859       -1.2324137347       -0.0000686217
  O        19.8594881949        1.2324107364       -0.0001123411
  O        15.2688387038        0.0000282309        2.1256492193
  O        15.2687684609       -0.0000204587       -2.1255587098
  O        16.8166541506       -1.2306252224       -0.0000152142
  O        16.8166544470        1.2306274415       -0.0000580265
  O        12.2366409880        0.0000318748        2.1349133074
  O        12.2365559198       -0.0000449847       -2.1348464560
  O        13.7721997155       -1.2316519614        0.0000570119
  O        13.7721985079        1.2316485985        0.0000050724
  O         9.2222013869       -0.0002040206        2.1465551031
  O         9.2224960541        0.0002004087       -2.1466825431
  O        10.7319521803       -1.2285635884        0.0000140065
  O        10.7319547166        1.2285609535       -0.0000225621
  O         6.1226376912        0.0003700209        2.2659360328
  O         6.1225567504       -0.0003522457       -2.2659430178
  O         7.7629849665       -1.2907064745       -0.0009706762
  O         7.7629819260        1.2907014519        0.0004184851
  O         3.0084692668       -0.0001480361        2.1450298107
  O         3.0086469655        0.0001491785       -2.1448010130
  O         4.4755292118       -1.2787820188       -0.0007170365
  O         4.4755656538        1.2788166421        0.0015707228
  O        -0.0224575781        0.0000515676        2.1352752064
  O        -0.0224205826       -0.0000552866       -2.1353241732
  O         1.5138078615       -1.2261816259        0.0000067970
  O         1.5138070387        1.2261721865       -0.0001135897
  H        18.3791407271       -0.8116743820       -2.6976284737
  H        18.3791298542        0.8116644256       -2.6976286553
  H        18.3792073491       -0.8116716868        2.6976250786
  H        18.3792590587        0.8116885283        2.6976167169
  H        19.8679804253       -2.2273369949       -0.0000197703
  H        19.8679826636        2.2273348681       -0.0000286571
  H        15.2258673912       -0.8114506521       -2.6967164877
  H        15.2259990171        0.8114222447       -2.6967339303
  H        15.2261019693       -0.8114365712        2.6967488807
  H        15.2259521338        0.8114726258        2.6967323407
  H        16.8084090187       -2.2275948085       -0.0000011440
  H        16.8084129435        2.2275964297       -0.0000141127
  H        12.0955848853       -0.8101735845       -2.6895330371
  H        12.0959534628        0.8101788021       -2.6895336346
  H        12.0960734126       -0.8101976246        2.6896836672
  H        12.0956769420        0.8101749262        2.6896762836
  H        13.7491176459       -2.2273527517        0.0000080295
  H        13.7491067071        2.2273502449        0.0000091879
  H         9.0351137364       -0.8085078512       -2.6926665492
  H         9.0362800311        0.8090302618       -2.6931471302
  H         9.0359887423       -0.8091026033        2.6928689552
  H         9.0348236316        0.8085634868        2.6924119317
  H        10.6878794557       -2.2223012651       -0.0000368686
  H        10.6878950474        2.2222997075        0.0002725646
  H         6.1128659614       -0.8128969777       -2.8455359497
  H         6.1129082040        0.8124917887       -2.8452232937
  H         6.1128169842       -0.8124760099        2.8452487959
  H         6.1127980325        0.8129182128        2.8455540862
  H         7.7319135311       -2.2856726243       -0.0001263133
  H         7.7319057666        2.2856724975       -0.0006126139
  H         3.1897627619       -0.8111202903       -2.6971483692
  H         3.1887455532        0.8114325917       -2.6974882201
  H         3.1884351750       -0.8114600855        2.6978250444
  H         3.1895389560        0.8111432870        2.6974646950
  H         4.5013757114       -2.2896005917        0.0006535160
  H         4.5013565533        2.2896045691        0.0001077559
  H         0.1259835940       -0.8102238745       -2.6910476478
  H         0.1258426833        0.8101776450       -2.6910410909
  H         0.1259096802       -0.8102072443        2.6908981186
  H         0.1261489257        0.8102372218        2.6908960375
  H         1.5448772895       -2.2240344349       -0.0002614134
  H         1.5448820288        2.2240305284        0.0000115168
      77
 i =        3, E =     -1335.6118697483
 Fe        18.3267796872        0.0000010802        0.0003459320
 Fe        15.2806222310        0.0000011209       -0.0000039066
 Fe        12.2108843280       -0.0000042187        0.0000377162
 Fe         9.1516222610        0.0000021736        0.0002453329
 Fe         6.1225517458        0.0000218549        0.0000149309
 Fe         3.0972519681        0.0000059151        0.0001560876
 Fe         0.0217091480       -0.0000020668       -0.0000589136
  O        18.3065327546        0.0000147541        2.1375291505
  O        18.3063461566       -0.0000109693       -2.1374489220
  O        19.8616234768       -1.2212007896       -0.0000644845
  O        19.8616226554        1.2211978071       -0.0001256649
  O        15.2560589551        0.0000273187        2.1261519453
  O        15.2559905268       -0.0000200041       -2.1260451440
  O        16.8191564720       -1.2238555885        0.0000082143
  O        16.8191567850        1.2238578766       -0.0000484608
  O        12.2300259699        0.0000365459        2.1403891176
  O        12.2298925747       -0.0000514680       -2.1402880799
  O        13.7760723220       -1.2224428870        0.0000934478
  O        13.7760720422        1.2224398148        0.0000234228
  O         9.2273959334       -0.0003223715        2.1518403180
  O         9.2276874671        0.0003192888       -2.1518944632
  O        10.7330355059       -1.2215875510        0.0000537744
  O        10.7330373918        1.2215849241        0.0000234212
  O         6.1286192054        0.0003689105        2.2664579166
  O         6.1286526689       -0.0003486428       -2.2664593207
  O         7.7623153576       -1.2762081502       -0.0010286671
  O         7.7623041996        1.2762051547        0.0004343814
  O         3.0088292274       -0.0001988392        2.1489116852
  O         3.0089217495        0.0002015407       -2.1487436842
  O         4.4849861457       -1.2781141722       -0.0008411465
  O         4.4850226097        1.2781197174        0.0019860981
  O        -0.0359273031        0.0000548195        2.1410276110
  O        -0.0358283575       -0.0000577146       -2.1410936099
  O         1.5217483228       -1.2177254343        0.0000222868
  O         1.5217498507        1.2177187444       -0.0001530417
  H        18.3801671612       -0.8185127035       -2.7000071059
  H        18.3801549249        0.8184895271       -2.6999986608
  H        18.3802357644       -0.8184961442        2.7000188771
  H        18.3802899689        0.8185297310        2.7000213821
  H        19.8679787545       -2.2125730807       -0.0000255410
  H        19.8679809026        2.2125699337       -0.0000347018
  H        15.2251761212       -0.8153555600       -2.6952699019
  H        15.2253122261        0.8153108479       -2.6952764159
  H        15.2254130552       -0.8153242476        2.6953242085
  H        15.2252586060        0.8153824263        2.6953220348
  H        16.8089919888       -2.2106549421       -0.0000062967
  H        16.8089955193        2.2106571815       -0.0000192195
  H        12.0939867436       -0.8147387190       -2.6886656748
  H        12.0943707433        0.8147135508       -2.6886493023
  H        12.0945078962       -0.8146785134        2.6887603886
  H        12.0940971705        0.8146778852        2.6887652713
  H        13.7501046133       -2.2114500581        0.0000050679
  H        13.7500947621        2.2114467722        0.0000058342
  H         9.0351746979       -0.8101470237       -2.6869735290
  H         9.0363688882        0.8106654113       -2.6874485662
  H         9.0360570347       -0.8107491151        2.6872570739
  H         9.0348647557        0.8102107002        2.6868019961
  H        10.6893322008       -2.2064058183       -0.0000498187
  H        10.6893460336        2.2064033255        0.0002601312
  H         6.1129369441       -0.8124702578       -2.8411121835
  H         6.1129875972        0.8119781473       -2.8408293843
  H         6.1128873247       -0.8119420496        2.8408365201
  H         6.1128597205        0.8124752111        2.8411144236
  H         7.7337934127       -2.2652314464       -0.0001857674
  H         7.7337870388        2.2652274658       -0.0005506601
  H         3.1892652219       -0.8106695452       -2.6907033287
  H         3.1882199706        0.8109895051       -2.6910699602
  H         3.1879073536       -0.8109772796        2.6913756725
  H         3.1890397200        0.8106537765        2.6909911765
  H         4.4993883944       -2.2547283845        0.0005516425
  H         4.4993755518        2.2547609812        0.0002048418
  H         0.1271986073       -0.8135511887       -2.6887636777
  H         0.1270455632        0.8134712953       -2.6887379226
  H         0.1271168157       -0.8135079389        2.6886311250
  H         0.1273688412        0.8135683436        2.6886462501
  H         1.5440680592       -2.2053621090       -0.0002611316
  H         1.5440710931        2.2053537605        0.0000150646
      77
 i =        4, E =     -1335.6142049427
 Fe        18.3429742863        0.0000007753        0.0002339625
 Fe        15.2818608549        0.0000008984       -0.0000265954
 Fe        12.2139879994       -0.0000048711        0.0000065655
 Fe         9.1432236698        0.0000010585        0.0001747662
 Fe         6.1258090098        0.0000379647        0.0000250427
 Fe         3.1032511275        0.0000065004        0.0001859948
 Fe         0.0269628060       -0.0000032635       -0.0000968326
  O        18.2992466638        0.0000217330        2.1371409912
  O        18.2990957231       -0.0000163970       -2.1370626100
  O        19.8600990335       -1.2109815206       -0.0000425781
  O        19.8600984999        1.2109788565       -0.0001159351
  O        15.2540198655        0.0000357558        2.1262820297
  O        15.2539795362       -0.0000264932       -2.1261939520
  O        16.8170401277       -1.2131894659        0.0000426954
  O        16.8170404669        1.2131916700       -0.0000242530
  O        12.2264723635        0.0000422766        2.1387605775
  O        12.2263275617       -0.0000592157       -2.1386758617
  O        13.7746864920       -1.2122877267        0.0001160000
  O        13.7746857330        1.2122848597        0.0000321191
  O         9.2330254929       -0.0003620969        2.1492342720
  O         9.2333056621        0.0003580620       -2.1492625731
  O        10.7344340915       -1.2114913756        0.0000898311
  O        10.7344357725        1.2114885007        0.0000686871
  O         6.1291956902        0.0003812725        2.2679666654
  O         6.1292225682       -0.0003577238       -2.2679626466
  O         7.7648465434       -1.2650962726       -0.0010050163
  O         7.7648357749        1.2650966178        0.0004305477
  O         3.0082755254       -0.0002192289        2.1492027895
  O         3.0083332261        0.0002235928       -2.1490331640
  O         4.4866361213       -1.2616383599       -0.0008671600
  O         4.4866575371        1.2616590128        0.0021209427
  O        -0.0414825195        0.0000670867        2.1416924085
  O        -0.0413889113       -0.0000700819       -2.1417370089
  O         1.5196356294       -1.2083138219        0.0000354167
  O         1.5196382246        1.2083095627       -0.0001687678
  H        18.3808068691       -0.8177578458       -2.6995095604
  H        18.3807942716        0.8177330475       -2.6995003229
  H        18.3808796506       -0.8177547354        2.6995562656
  H        18.3809346277        0.8177901512        2.6995596269
  H        19.8680924014       -2.2032367303       -0.0000325635
  H        19.8680944053        2.2032332635       -0.0000425270
  H        15.2246408710       -0.8146586451       -2.6928716982
  H        15.2247797994        0.8146093483       -2.6928752927
  H        15.2248735346       -0.8146259284        2.6929522294
  H        15.2247164200        0.8146900277        2.6929532016
  H        16.8095872514       -2.2041685338       -0.0000121296
  H        16.8095903997        2.2041710935       -0.0000252961
  H        12.0925060938       -0.8159394695       -2.6886042469
  H        12.0929006109        0.8158977794       -2.6885803714
  H        12.0930467643       -0.8158714848        2.6886873151
  H        12.0926260945        0.8158829794        2.6886977956
  H        13.7510520272       -2.2032837120        0.0000043179
  H        13.7510431107        2.2032800531        0.0000045399
  H         9.0345022376       -0.8120290065       -2.6844575409
  H         9.0357096187        0.8125998478       -2.6849620137
  H         9.0353882807       -0.8126727303        2.6848304078
  H         9.0341830662        0.8120809776        2.6843447157
  H        10.6902344671       -2.2004436438       -0.0000604571
  H        10.6902471367        2.2004411242        0.0002519265
  H         6.1131034740       -0.8106665671       -2.8368512643
  H         6.1131652007        0.8101186806       -2.8366145169
  H         6.1130521068       -0.8100813612        2.8366127646
  H         6.1130132637        0.8106738190        2.8368473679
  H         7.7348962586       -2.2526457121       -0.0002361907
  H         7.7348908443        2.2526410403       -0.0005012747
  H         3.1894147420       -0.8108049605       -2.6868798614
  H         3.1883456731        0.8111657208       -2.6872989051
  H         3.1880336212       -0.8111272600        2.6875653819
  H         3.1891902984        0.8107638850        2.6871313411
  H         4.4990639432       -2.2470777088        0.0004868589
  H         4.4990545376        2.2470986059        0.0002718792
  H         0.1278986727       -0.8133506628       -2.6866866372
  H         0.1277395693        0.8132609567       -2.6866571916
  H         0.1278087462       -0.8132777944        2.6865555990
  H         0.1280672726        0.8133469418        2.6865741284
  H         1.5441851867       -2.1964889583       -0.0002624326
  H         1.5441868234        2.1964802674        0.0000192764
      77
 i =        5, E =     -1335.6147113757
 Fe        18.3358649489       -0.0000023358       -0.0007892651
 Fe        15.2843534773        0.0000010313       -0.0000213084
 Fe        12.2154862122       -0.0000049552        0.0000057095
 Fe         9.1351871051       -0.0000004403       -0.0000018914
 Fe         6.1270512866        0.0000535554        0.0000377419
 Fe         3.1065966344        0.0000055271        0.0001896033
 Fe         0.0288272238       -0.0000034920       -0.0001139091
  O        18.2989835701        0.0000248405        2.1365670484
  O        18.2988731779       -0.0000189368       -2.1364956948
  O        19.8598158600       -1.2089671100       -0.0000294389
  O        19.8598155970        1.2089642900       -0.0001074029
  O        15.2562845725        0.0000413182        2.1253681008
  O        15.2562628438       -0.0000308937       -2.1252818758
  O        16.8161906706       -1.2101076372        0.0000591828
  O        16.8161910787        1.2101097492       -0.0000114382
  O        12.2253798127        0.0000476910        2.1370677256
  O        12.2252483272       -0.0000665850       -2.1369922527
  O        13.7729837639       -1.2098715034        0.0001186309
  O        13.7729823635        1.2098684087        0.0000294073
  O         9.2351160426       -0.0003537955        2.1477870081
  O         9.2353765684        0.0003490083       -2.1478052847
  O        10.7343905158       -1.2093621014        0.0001018693
  O        10.7343924499        1.2093590749        0.0000900214
  O         6.1280204542        0.0003946699        2.2662939357
  O         6.1280138610       -0.0003684325       -2.2662910809
  O         7.7650179554       -1.2629037827       -0.0009875492
  O         7.7650098503        1.2629052454        0.0004265670
  O         3.0073178217       -0.0002324290        2.1469579644
  O         3.0073821972        0.0002376194       -2.1467969747
  O         4.4867778530       -1.2572566887       -0.0008656217
  O         4.4867846604        1.2572740751        0.0021520500
  O        -0.0417832212        0.0000739953        2.1402349256
  O        -0.0417086571       -0.0000774473       -2.1402715153
  O         1.5169506446       -1.2056801434        0.0000401256
  O         1.5169527030        1.2056753184       -0.0001690490
  H        18.3809217953       -0.8153779758       -2.6984571346
  H        18.3809089609        0.8153523433       -2.6984475512
  H        18.3809957934       -0.8153729680        2.6985155692
  H        18.3810511452        0.8154093257        2.6985192464
  H        19.8681265117       -2.1987305688       -0.0000356215
  H        19.8681284666        2.1987274121       -0.0000464352
  H        15.2243534402       -0.8136812109       -2.6918540753
  H        15.2244938184        0.8136300402       -2.6918566048
  H        15.2245831816       -0.8136392051        2.6919384901
  H        15.2244247515        0.8137056526        2.6919403383
  H        16.8098796270       -2.2010042015       -0.0000139382
  H        16.8098825708        2.2010066458       -0.0000275562
  H        12.0917243236       -0.8150000688       -2.6883391504
  H        12.0921230792        0.8149545885       -2.6883151739
  H        12.0922725689       -0.8149446709        2.6884244392
  H        12.0918477657        0.8149590322        2.6884350863
  H        13.7515702241       -2.1994988265        0.0000057923
  H        13.7515617660        2.1994953775        0.0000053704
  H         9.0343255525       -0.8119720476       -2.6831785702
  H         9.0355330862        0.8125957180       -2.6837114485
  H         9.0352110120       -0.8126537674        2.6836019083
  H         9.0340057280        0.8120092674        2.6830877186
  H        10.6908079058       -2.1974187704       -0.0000640581
  H        10.6908200535        2.1974163413        0.0002492211
  H         6.1132121811       -0.8109717709       -2.8359392054
  H         6.1132817972        0.8104010052       -2.8357347637
  H         6.1131603555       -0.8103698513        2.8357322403
  H         6.1131136018        0.8109874859        2.8359369860
  H         7.7353291820       -2.2480107853       -0.0002622903
  H         7.7353245902        2.2480087963       -0.0004752367
  H         3.1898881342       -0.8115955931       -2.6861393115
  H         3.1888028237        0.8119819445       -2.6865909063
  H         3.1884959932       -0.8119511298        2.6868456508
  H         3.1896692767        0.8115628776        2.6863807555
  H         4.4993676666       -2.2450456226        0.0004509101
  H         4.4993591618        2.2450638837        0.0003150045
  H         0.1281794731       -0.8124918663       -2.6858383986
  H         0.1280177495        0.8123991760       -2.6858085793
  H         0.1280850142       -0.8124078131        2.6857080405
  H         0.1283464272        0.8124799890        2.6857271969
  H         1.5443971256       -2.1936529004       -0.0002628185
  H         1.5443981631        2.1936465746        0.0000219203
      77
 i =        6, E =     -1335.6148874321
 Fe        18.3375519341       -0.0000015505       -0.0005590268
 Fe        15.2862268652        0.0000010991       -0.0000073984
 Fe        12.2159483288       -0.0000049615        0.0000098749
 Fe         9.1307634732       -0.0000007282       -0.0000758525
 Fe         6.1274960706        0.0000641524        0.0000470975
 Fe         3.1086549703        0.0000042173        0.0001784202
 Fe         0.0293369838       -0.0000035037       -0.0001149771
  O        18.2992633292        0.0000260444        2.1359734212
  O        18.2991776747       -0.0000199958       -2.1359214434
  O        19.8596101287       -1.2080540675       -0.0000319628
  O        19.8596099960        1.2080510720       -0.0001122117
  O        15.2577915535        0.0000438532        2.1246138635
  O        15.2577828580       -0.0000329520       -2.1245289012
  O        16.8157189269       -1.2091205357        0.0000581177
  O        16.8157193923        1.2091224837       -0.0000142198
  O        12.2249223119        0.0000503795        2.1361742014
  O        12.2248012853       -0.0000702240       -2.1361015747
  O        13.7721591223       -1.2089283495        0.0001177387
  O        13.7721573421        1.2089251476        0.0000258621
  O         9.2359818018       -0.0003525798        2.1471328545
  O         9.2362286434        0.0003474760       -2.1471485302
  O        10.7341763218       -1.2086024872        0.0001053752
  O        10.7341784280        1.2085993736        0.0000990093
  O         6.1273001737        0.0004013037        2.2651111366
  O         6.1272754453       -0.0003733222       -2.2651083948
  O         7.7647183132       -1.2622179920       -0.0009808706
  O         7.7647118303        1.2622204864        0.0004231995
  O         3.0068449877       -0.0002413441        2.1457832237
  O         3.0069151453        0.0002469853       -2.1456270259
  O         4.4869673135       -1.2561204641       -0.0008657891
  O         4.4869658774        1.2561353900        0.0021701832
  O        -0.0415554208        0.0000770887        2.1392937967
  O        -0.0414965138       -0.0000807551       -2.1393313505
  O         1.5155790713       -1.2047874690        0.0000412243
  O         1.5155806716        1.2047824950       -0.0001690229
  H        18.3809845899       -0.8140827274       -2.6979024609
  H        18.3809715794        0.8140562957       -2.6978924481
  H        18.3810595753       -0.8140723751        2.6979629811
  H        18.3811151909        0.8141096924        2.6979670801
  H        19.8681455249       -2.1966901090       -0.0000352284
  H        19.8681474380        2.1966871131       -0.0000465491
  H        15.2241915213       -0.8131683327       -2.6913792797
  H        15.2243327281        0.8131156883       -2.6913809571
  H        15.2244218260       -0.8131196937        2.6914638859
  H        15.2242626464        0.8131880201        2.6914665537
  H        16.8100310826       -2.1993447297       -0.0000127453
  H        16.8100339429        2.1993470664       -0.0000266633
  H        12.0912929963       -0.8143140414       -2.6881301654
  H        12.0916940822        0.8142661927       -2.6881060755
  H        12.0918452615       -0.8142647998        2.6882161798
  H        12.0914182026        0.8142809373        2.6882269445
  H        13.7518292077       -2.1977197983        0.0000071888
  H        13.7518209849        2.1977164645        0.0000063825
  H         9.0342884054       -0.8117668439       -2.6824636220
  H         9.0354969280        0.8124147204       -2.6830083791
  H         9.0351748984       -0.8124640141        2.6829089917
  H         9.0339687084        0.8117952808        2.6823828514
  H        10.6911291049       -2.1959392081       -0.0000652894
  H        10.6911409911        2.1959368038        0.0002485144
  H         6.1132717591       -0.8112376921       -2.8355720912
  H         6.1133459763        0.8106533792       -2.8353849851
  H         6.1132201485       -0.8106254601        2.8353819854
  H         6.1131687954        0.8112580311        2.8355710793
  H         7.7355214901       -2.2461037470       -0.0002757747
  H         7.7355175314        2.2461034269       -0.0004609981
  H         3.1901460839       -0.8119443021       -2.6857834403
  H         3.1890513542        0.8123438912       -2.6862522747
  H         3.1887475454       -0.8123191199        2.6865015389
  H         3.1899304257        0.8119180092        2.6860203160
  H         4.4995957361       -2.2439161269        0.0004308722
  H         4.4995874057        2.2439332430        0.0003402864
  H         0.1283168014       -0.8119741172       -2.6854054873