     216
 i =       65, E =     -5073.7476950521
 Bi         2.5890876743        1.2853603687       10.2279952237
 Bi         2.5694588189        6.3703350915       10.2230866215
 Bi         2.5240110479       11.4663225980       10.2409473777
 Bi         7.7882451218        1.2920692604       10.2455056238
 Bi         7.7508404902        6.3667323939       10.2365732932
 Bi         7.7134360878       11.4413965600       10.2455059763
 Bi        12.9776702718        1.2671430368       10.2409474039
 Bi        12.9322225700        6.3631302583       10.2230868396
 Bi        12.9125935205       11.4481053151       10.2279952624
 Bi         2.5626984901        3.8290623564        1.4646011718
 Bi         2.5514666753        8.9214730474        1.4770971994
 Bi         2.5030055497       14.0160095205        1.4704431410
 Bi         7.7510571104        3.8443422923        1.5165463062
 Bi         7.7506242680        8.8891224771        1.5165460049
 Bi         7.6997694793       14.0068123213        1.4673015022
 Bi        12.9502143117        3.8119925729        1.4770973823
 Bi        12.9389825389        8.9044029503        1.4646011819
 Bi        12.8965333842       13.9976150655        1.4704432357
 Bi        -0.0102830434        1.2762986204        7.3217415289
 Bi        -0.0425591171        6.3667325072        7.3230966866
 Bi        -0.0748352448       11.4571671922        7.3217415619
 Bi         5.1872155651        1.2957627842        7.3143909067
 Bi         5.1748692766        6.3825446424        7.2801923051
 Bi         5.1198681394       11.4728702529        7.3280775495
 Bi        10.3818134836        1.2605935667        7.3280781930
 Bi        10.3268127366        6.3509202376        7.2801937749
 Bi        10.3144662214       11.4377029494        7.3143912190
 Bi        -0.0259843788        3.8208032285        4.3822420126
 Bi        -0.0591341377        8.9126621162        4.3822421362
 Bi        -0.0936302782       14.0068121752        4.3828214068
 Bi         5.1855370294        3.8546025332        4.3551301401
 Bi         5.1673844171        8.9011546603        4.4162986993
 Bi         5.0983448067       14.0136886960        4.3828135566
 Bi        10.3342978590        3.8323077285        4.4163005136
 Bi        10.3161436834        8.8788626689        4.3551303231
 Bi        10.3011940916       13.9999353555        4.3828135058
  O         3.8959179580        2.0233352615        0.5190674588
  O         3.9151743555        7.1246517159        0.5242634128
  O         3.8261873692       12.2151133787        0.5189289817
  O         9.0879164018        1.9799552010        0.5195583915
  O         9.0569628932        7.0764743584        0.5242697206
  O         9.0172116204       12.1714841289        0.5209659766
  O        14.2770315679        1.9850652435        0.5226393992
  O        14.2441858810        7.0743021564        0.5211312162
  O        14.2145332349       12.1682263510        0.5216283655
  O         3.2964209612        2.5429818944        3.4407116575
  O         3.2745394403        7.6346339742        3.4459791130
  O         3.2376413289       12.7359970084        3.4479544639
  O         8.4975666381        2.5438690293        3.4561945322
  O         8.5887535468        7.5859332634        3.3807407185
  O         8.4368215140       12.7263017333        3.4519967241
  O        13.6920021427        2.5460157182        3.4488760613
  O        13.6763709019        7.6374598120        3.4532479003
  O        13.6280151084       12.7292400957        3.4539631314
  O         1.2763478930        4.5504802688        6.3717991648
  O         1.2425053159        9.6307357956        6.3762949322
  O         1.2086877476       14.7345267498        6.3733641221
  O         6.4653209622        4.5731950649        6.3569809309
  O         6.4335591044        9.7027702797        6.3815599619
  O         6.4099545459       14.7485939188        6.3728645131
  O        11.6667472558        4.5263370158        6.3742394730
  O        11.6362048787        9.6225969095        6.3805793353
  O        11.6022350241       14.7094113898        6.3711451317
  O         0.7236780778       -0.0002701058        9.3005465080
  O         0.6923189864        5.0966736541        9.3026181845
  O         0.6596656315       10.1853184651        9.3009429615
  O         5.9215557631        0.0021279440        9.2998892391
  O         5.8861251225        5.0976876417        9.3048159621
  O         5.8487409503       10.1889437215        9.3024066594
  O        11.1181156707       -0.0136157931        9.3098987211
  O        11.0824651092        5.0779483720        9.3068673611
  O        11.0500520982       10.1806872844        9.3028461256
  O         1.7715237795       15.2843843648        3.4539629112
  O         1.8253096481        5.0960054203        3.4532477263
  O         1.8096787893       10.1874499879        3.4488759444
  O         6.9627176421       15.2873227881        3.4519966162
  O         6.9129283546        5.1475285479        3.3807397444
  O         7.0041143660       10.1895962049        3.4561939249
  O        12.1618975156       15.2776276742        3.4479544211
  O        12.2271415945        5.0988312917        3.4459793432
  O        12.2052600417       10.1904839456        3.4407114788
  O         0.6994198739        2.5438868535        2.4054017072
  O         0.6729448305        7.6387745258        2.4027426949
  O         0.6396415136       12.7348933158        2.4031950538
  O         5.8981901067        2.5450692817        2.4037386463
  O         5.9032937005        7.6414845972        2.4298224255
  O         5.8364191873       12.7343975627        2.4052775450
  O        11.0990587540        2.5374600732        2.3927137840
  O        11.1226273644        7.6323961891        2.3915731321
  O        11.0319455160       12.7256766434        2.3959179050
  O         4.4516291722        2.5527784933        9.3028456228
  O         4.4192163409        7.6555174352        9.3068670026
  O         4.3835659749       12.7470807440        9.3098980044
  O         9.6529404062        2.5445220343        9.3024065037
  O         9.6155555293        7.6357785749        9.3048159693
  O         9.5801255400       12.7313376902        9.2998892314
  O        14.8420155412        2.5481476536        9.3009427327
  O        14.8093623697        7.6367920031        9.3026180097
  O        14.7780030475       12.7337358892        9.3005464451
  O         1.2660814949        3.1090441405       11.1804382092
  O         1.2388338179        8.2021828335       11.1831727550
  O         1.2023986579       13.2971236495       11.1836250447
  O         6.4596266972        3.1094859794       11.1830116217
  O         6.4381562789        8.2039170199       11.1801697037
  O         6.4017949435       13.2937831116       11.1815404067
  O        11.6588809666        3.0667943235       11.1870687470
  O        11.6274203182        8.1689433072       11.1823494909
  O        11.5864388262       13.2523033150       11.1851252633
  O         1.8489948082        2.5495808899        8.2546541569
  O         1.8221712414        7.6420211274        8.2547509980
  O         1.7894881994       12.7388091960        8.2524320978
  O         7.0486115846        2.6012751670        8.2466332265
  O         7.0189619027        7.6471605952        8.2536978843
  O         6.9850500924       12.7364379931        8.2536038493
  O        12.2488378990        2.5454048967        8.2573443511
  O        12.2200234486        7.6423959150        8.2602971297
  O        12.1774796631       12.7276738927        8.2553010590
  O         3.8888844762        0.5690916445        5.3319124693
  O         3.8561704430        5.6624141749        5.3267690646
  O         3.8154200235       10.7561234204        5.3367735041
  O         9.0795614589        0.5201079734        5.3298887008
  O         8.9909023606        5.5150417434        5.4395129216
  O         8.9957284699       10.7134667883        5.3340911690
  O        14.2766694141        0.5571377200        5.3292158557
  O        14.2390552146        5.6408470536        5.3303609742
  O        14.2075962609       10.7258740434        5.3318137813
  O         4.3675935030       15.2879478083        2.3959182174
  O         4.3790536921        5.1010693257        2.3915732222
  O         4.4026220654       10.1960058971        2.3927135840
  O         9.5631198157       15.2792270048        2.4052774523
  O         9.5983866843        5.0919818968        2.4298276350
  O         9.6034909929       10.1883965887        2.4037389629
  O        14.7598973459       15.2787313711        2.4031951062
  O        14.8287361786        5.0946909920        2.4027427232
  O        14.8022611416       10.1895789588        2.4054018707
  O         3.8742604837        4.5645203893       11.1823493984
  O         3.8428001933        9.6666712837       11.1870686347
  O         3.8131002272       14.7613213976       11.1851249642
  O         9.0635250580        4.5295481641       11.1801699072
  O         9.0420546437        9.6239797253       11.1830118474
  O         8.9977436888       14.7198414762       11.1815404416
  O        14.2628471612        4.5312824603       11.1831728843
  O        14.2355996369        9.6244216669       11.1804381512
  O        14.1971401373       14.7165010094       11.1836250875
  O         3.3242014888        0.0057917305        8.2553010359
  O         3.2816580514        5.0910704247        8.2602965743
  O         3.2528432933       10.1880613170        8.2573440377
  O         8.5166310216       -0.0029725411        8.2536036885
  O         8.4827200541        5.0863034451        8.2536980574
  O         8.4530700544       10.1321916463        8.2466335977
  O        13.7121930037       -0.0053434467        8.2524319351
  O        13.6795100116        5.0914447687        8.2547509547
  O        13.6526865711       10.1838848711        8.2546536687
  O         1.2940846836        2.0075900517        5.3318135794
  O         1.2626257780        7.0926171096        5.3303610232
  O         1.2250116940       12.1763273046        5.3292158297
  O         6.5059509498        2.0199969095        5.3340905089
  O         6.5107747494        7.2184111918        5.4394997592
  O         6.4221199060       12.2133552806        5.3298889504
  O        11.6862613706        1.9773421825        5.3367736364
  O        11.6455099162        7.0710508749        5.3267688976
  O        11.6127966563       12.1643735005        5.3319124488
  O         3.8654763846        3.1108684179        6.3805793480
  O         3.8349338181        8.2071283140        6.3742391429
  O         3.7973044250       13.3042125715        6.3711455875
  O         9.0681207724        3.0306828676        6.3815599627
  O         9.0363592693        8.1602681952        6.3569799404
  O         8.9895843549       13.2650290370        6.3728645505
  O        14.2591757764        3.1027296152        6.3762949562
  O        14.2253326857        8.1829812937        6.3717991678
  O        14.1908512065       13.2790973144        6.3733640440
  O         1.2871477788        0.5652391761        0.5216283086
  O         1.2574952255        5.6591633502        0.5211312043
  O         1.2246495923       10.7484007236        0.5226393755
  O         6.4844695423        0.5619812654        0.5209659687
  O         6.4447180975        5.6569902611        0.5242691026
  O         6.4137649709       10.7535104184        0.5195584519
  O        11.6754938417        0.5183521319        0.5189291181
  O        11.5865061184        5.6088137554        0.5242642130
  O        11.6057631059       10.7101297116        0.5190672564
  V        -0.0114393423        1.2735021554        1.4483229166
  V        -0.0425592402        6.3667327154        1.4471442350
  V        -0.0736792031       11.4599634936        1.4483229559
  V         5.1821696347        1.2811195787        1.4391680552
  V         5.1670097106        6.3700149221        1.4765921869
  V         5.1173042860       11.4679440006        1.4400928982
  V        10.3843769360        1.2655216035        1.4400929741
  V        10.3346708184        6.3634497402        1.4765938271
  V        10.3195115846       11.4523457328        1.4391679775
  V         2.5695708349        3.8261322374        7.3011941922
  V         2.5384629117        8.9175210807        7.3023301898
  V         2.5033148554       14.0147108571        7.2998851498
  V         7.7790832558        3.8390426928        7.2598147291
  V         7.7226002605        8.8944221436        7.2598169657
  V         7.6997696036       14.0068119626        7.2939970688
  V        12.9632185133        3.8159445255        7.3023303746
  V        12.9321108229        8.9073330344        7.3011938621
  V        12.8962243244       13.9989136484        7.2998851200
  V        -0.0293927081        3.8233859986       10.2545017789
  V        -0.0557257150        8.9100797791       10.2545016745
  V        -0.0936303707       14.0068123950       10.2551404780
  V         5.1683000115        3.8306839589       10.2574393788
  V         5.1357285237        8.9194090864       10.2684474468
  V         5.1026858303       14.0194785428       10.2631942190
  V        10.3659526871        3.8140564109       10.2684475016
  V        10.3333814046        8.9027814936       10.2574397934
  V        10.2968530296       13.9941459022       10.2631946980
  V         2.5887654579        1.2832140064        4.4064636245
  V         2.5519026277        6.3699331541        4.4015035902
  V         2.5250992452       11.4614878671        4.4047646337
  V         7.7874508609        1.2686619056        4.4159337420
  V         7.7508434020        6.3667283403        4.4229428776
  V         7.7142305218       11.4648029520        4.4159330408
  V        12.9765821684        1.2719774207        4.4047645963
  V        12.9497783569        6.3635319208        4.4015039507
  V        12.9129158015       11.4502512217        4.4064637597
