 DBCSR| Multiplication driver                                               BLAS
 DBCSR| Multrec recursion limit                                              512
 DBCSR| Multiplication stack size                                           1000
 DBCSR| Maximum elements for images                                    UNLIMITED
 DBCSR| Multiplicative factor virtual images                                   1
 DBCSR| Multiplication size stacks                                             3
 DBCSR| Number of 3D layers                                               SINGLE
 DBCSR| Use MPI memory allocation                                              T
 DBCSR| Use RMA algorithm                                                      F
 DBCSR| Use Communication thread                                               T
 DBCSR| Communication thread load                                             87


  **** **** ******  **  PROGRAM STARTED AT               2020-04-22 07:54:47.101
 ***** ** ***  *** **   PROGRAM STARTED ON        cpn-u24-14.cbls.ccr.buffalo.ed
 **    ****   ******    PROGRAM STARTED BY                              pavankum
 ***** **    ** ** **   PROGRAM PROCESS ID                                162071
  **** **  *******  **  PROGRAM STARTED IN /projects/academic/mdupuis2/pavan/MOA
                                           /BVO/gopt_state1

 CP2K| version string:                                          CP2K version 6.1
 CP2K| source code revision number:                                    svn:18464
 CP2K| cp2kflags: libint fftw3 libxc parallel mpi3 scalapack libderiv_max_am1=5 
 CP2K|            libint_max_am=6
 CP2K| is freely available from                            https://www.cp2k.org/
 CP2K| Program compiled at                          Fri Nov 30 14:17:09 EST 2018
 CP2K| Program compiled on                       srv-p22-12.cbls.ccr.buffalo.edu
 CP2K| Program compiled for                                                local
 CP2K| Data directory path    /projects/academic/mdupuis2/pavan/cp2k/cp2k-6.1/da
 CP2K| Input file name                                                 input.inp

 GLOBAL| Force Environment number                                              1
 GLOBAL| Basis set file name            /projects/academic/mdupuis2/pavan/BASIS_
 GLOBAL| Potential file name            /projects/academic/mdupuis2/pavan/POTENT
 GLOBAL| MM Potential file name                                     MM_POTENTIAL
 GLOBAL| Coordinate file name                                         ./opt1.xyz
 GLOBAL| Method name                                                        CP2K
 GLOBAL| Project name                                                     p_bvo_
 GLOBAL| Preferred FFT library                                             FFTW3
 GLOBAL| Preferred diagonalization lib.                                       SL
 GLOBAL| Run type                                                         ENERGY
 GLOBAL| All-to-all communication in single precision                          F
 GLOBAL| FFTs using library dependent lengths                                  T
 GLOBAL| Global print level                                               MEDIUM
 GLOBAL| Total number of message passing processes                           128
 GLOBAL| Number of threads for this process                                    1
 GLOBAL| This output is from process                                           0
 GLOBAL| CPU model name :  Intel(R) Xeon(R) Gold 6130 CPU @ 2.10GHz

 MEMORY| system memory details [Kb]
 MEMORY|                        rank 0           min           max       average
 MEMORY| MemTotal            790968832     790968828     790968836     790968832
 MEMORY| MemFree             575701744     499995300     575701744     553547242
 MEMORY| Buffers                614196        553868        614412        597545
 MEMORY| Cached              203968644     203968644     279587076     226104996
 MEMORY| Slab                  1538736       1526320       1730192       1589489
 MEMORY| SReclaimable          1238740       1235884       1439608       1294927
 MEMORY| MemLikelyFree       781523324     781523324     781575852     781544710


 *** Fundamental physical constants (SI units) ***

 *** Literature: B. J. Mohr and B. N. Taylor,
 ***             CODATA recommended values of the fundamental physical
 ***             constants: 2006, Web Version 5.1
 ***             http://physics.nist.gov/constants

 Speed of light in vacuum [m/s]                             2.99792458000000E+08
 Magnetic constant or permeability of vacuum [N/A**2]       1.25663706143592E-06
 Electric constant or permittivity of vacuum [F/m]          8.85418781762039E-12
 Planck constant (h) [J*s]                                  6.62606896000000E-34
 Planck constant (h-bar) [J*s]                              1.05457162825177E-34
 Elementary charge [C]                                      1.60217648700000E-19
 Electron mass [kg]                                         9.10938215000000E-31
 Electron g factor [ ]                                     -2.00231930436220E+00
 Proton mass [kg]                                           1.67262163700000E-27
 Fine-structure constant                                    7.29735253760000E-03
 Rydberg constant [1/m]                                     1.09737315685270E+07
 Avogadro constant [1/mol]                                  6.02214179000000E+23
 Boltzmann constant [J/K]                                   1.38065040000000E-23
 Atomic mass unit [kg]                                      1.66053878200000E-27
 Bohr radius [m]                                            5.29177208590000E-11

 *** Conversion factors ***

 [u] -> [a.u.]                                              1.82288848426455E+03
 [Angstrom] -> [Bohr] = [a.u.]                              1.88972613288564E+00
 [a.u.] = [Bohr] -> [Angstrom]                              5.29177208590000E-01
 [a.u.] -> [s]                                              2.41888432650478E-17
 [a.u.] -> [fs]                                             2.41888432650478E-02
 [a.u.] -> [J]                                              4.35974393937059E-18
 [a.u.] -> [N]                                              8.23872205491840E-08
 [a.u.] -> [K]                                              3.15774647902944E+05
 [a.u.] -> [kJ/mol]                                         2.62549961709828E+03
 [a.u.] -> [kcal/mol]                                       6.27509468713739E+02
 [a.u.] -> [Pa]                                             2.94210107994716E+13
 [a.u.] -> [bar]                                            2.94210107994716E+08
 [a.u.] -> [atm]                                            2.90362800883016E+08
 [a.u.] -> [eV]                                             2.72113838565563E+01
 [a.u.] -> [Hz]                                             6.57968392072181E+15
 [a.u.] -> [1/cm] (wave numbers)                            2.19474631370540E+05
 [a.u./Bohr**2] -> [1/cm]                                   5.14048714338585E+03
 

 CELL_TOP| Volume [angstrom^3]:                                         2787.646
 CELL_TOP| Vector a [angstrom    15.587     0.000     0.000    |a| =      15.587
 CELL_TOP| Vector b [angstrom    -0.102    15.280     0.000    |b| =      15.281
 CELL_TOP| Vector c [angstrom     0.000     0.000    11.705    |c| =      11.705
 CELL_TOP| Angle (b,c), alpha [degree]:                                   90.000
 CELL_TOP| Angle (a,c), beta  [degree]:                                   90.000
 CELL_TOP| Angle (a,b), gamma [degree]:                                   90.383
 CELL_TOP| Numerically orthorhombic:                                          NO

 CELL| Volume [angstrom^3]:                                             2787.646
 CELL| Vector a [angstrom]:      15.587     0.000     0.000    |a| =      15.587
 CELL| Vector b [angstrom]:      -0.102    15.280     0.000    |b| =      15.281
 CELL| Vector c [angstrom]:       0.000     0.000    11.705    |c| =      11.705
 CELL| Angle (b,c), alpha [degree]:                                       90.000
 CELL| Angle (a,c), beta  [degree]:                                       90.000
 CELL| Angle (a,b), gamma [degree]:                                       90.383
 CELL| Numerically orthorhombic:                                              NO

 CELL_REF| Volume [angstrom^3]:                                         2787.646
 CELL_REF| Vector a [angstrom    15.587     0.000     0.000    |a| =      15.587
 CELL_REF| Vector b [angstrom    -0.102    15.280     0.000    |b| =      15.281
 CELL_REF| Vector c [angstrom     0.000     0.000    11.705    |c| =      11.705
 CELL_REF| Angle (b,c), alpha [degree]:                                   90.000
 CELL_REF| Angle (a,c), beta  [degree]:                                   90.000
 CELL_REF| Angle (a,b), gamma [degree]:                                   90.383
 CELL_REF| Numerically orthorhombic:                                          NO

 *******************************************************************************
 *******************************************************************************
 **                                                                           **
 **     #####                         ##              ##                      **
 **    ##   ##            ##          ##              ##                      **
 **   ##     ##                       ##            ######                    **
 **   ##     ##  ##   ##  ##   #####  ##  ##   ####   ##    #####    #####    **
 **   ##     ##  ##   ##  ##  ##      ## ##   ##      ##   ##   ##  ##   ##   **
 **   ##  ## ##  ##   ##  ##  ##      ####     ###    ##   ######   ######    **
 **    ##  ###   ##   ##  ##  ##      ## ##      ##   ##   ##       ##        **
 **     #######   #####   ##   #####  ##  ##  ####    ##    #####   ##        **
 **           ##                                                    ##        **
 **                                                                           **
 **                                                ... make the atoms dance   **
 **                                                                           **
 **            Copyright (C) by CP2K developers group (2000 - 2018)           **
 **                                                                           **
 *******************************************************************************

 DFT| Spin unrestricted (spin-polarized) Kohn-Sham calculation               UKS
 DFT| Multiplicity                                                             2
 DFT| Number of spin states                                                    2
 DFT| Charge                                                                  -1
 DFT| Self-interaction correction (SIC)                                       NO
 DFT| Cutoffs: density                                              1.000000E-10
 DFT|          gradient                                             1.000000E-10
 DFT|          tau                                                  1.000000E-10
 DFT|          cutoff_smoothing_range                               0.000000E+00
 DFT| XC density smoothing                                                  NONE
 DFT| XC derivatives                                                          PW

 DFT+U| Method                                                          MULLIKEN
 DFT+U| Check atomic kind information for details
 FUNCTIONAL| ROUTINE=NEW
 FUNCTIONAL| PBE:
 FUNCTIONAL| J.P.Perdew, K.Burke, M.Ernzerhof, Phys. Rev. Letter, vol. 77, n 18,
 FUNCTIONAL|  pp. 3865-3868, (1996){spin polarized}                             

 QS| Method:                                                                 GPW
 QS| Density plane wave grid type                        NON-SPHERICAL FULLSPACE
 QS| Number of grid levels:                                                   10
 QS| Density cutoff [a.u.]:                                                325.0
 QS| Multi grid cutoff [a.u.]: 1) grid level                               325.0
 QS|                           2) grid level                               108.3
 QS|                           3) grid level                                36.1
 QS|                           4) grid level                                12.0
 QS|                           5) grid level                                 4.0
 QS|                           6) grid level                                 1.3
 QS|                           7) grid level                                 0.4
 QS|                           8) grid level                                 0.1
 QS|                           9) grid level                                 0.0
 QS|                          10) grid level                                 0.0
 QS| Grid level progression factor:                                          3.0
 QS| Relative density cutoff [a.u.]:                                        30.0
 QS| Consistent realspace mapping and integration 
 QS| Interaction thresholds: eps_pgf_orb:                                1.0E-12
 QS|                         eps_filter_matrix:                          0.0E+00
 QS|                         eps_core_charge:                            1.0E-14
 QS|                         eps_rho_gspace:                             1.0E-12
 QS|                         eps_rho_rspace:                             1.0E-12
 QS|                         eps_gvg_rspace:                             1.0E-06
 QS|                         eps_ppl:                                    1.0E-02
 QS|                         eps_ppnl:                                   1.0E-08


 ATOMIC KIND INFORMATION

  1. Atomic kind: Bi                                    Number of atoms:      36

     Orbital Basis Set                                      SZV-MOLOPT-SR-GTH-q5

       Number of orbital shell sets:                                           1
       Number of orbital shells:                                               2
       Number of primitive Cartesian functions:                                5
       Number of Cartesian basis functions:                                    4
       Number of spherical basis functions:                                    4
       Norm type:                                                              2

       Normalised Cartesian orbitals:

                        Set   Shell   Orbital            Exponent    Coefficient

                          1       1    2s                1.666928      -0.653332
                                                         1.317942       0.913949
                                                         0.222221      -0.237783
                                                         0.074524      -0.045176
                                                         0.066725       0.021473

                          1       2    3px               1.666928      -0.339972
                                                         1.317942       0.505803
                                                         0.222221      -0.150343
                                                         0.074524      -0.031874
                                                         0.066725       0.007024
                          1       2    3py               1.666928      -0.339972
                                                         1.317942       0.505803
                                                         0.222221      -0.150343
                                                         0.074524      -0.031874
                                                         0.066725       0.007024
                          1       2    3pz               1.666928      -0.339972
                                                         1.317942       0.505803
                                                         0.222221      -0.150343
                                                         0.074524      -0.031874
                                                         0.066725       0.007024

     GTH Potential information for                                    GTH-PBE-q5

       Description:                       Goedecker-Teter-Hutter pseudopotential
                                           Goedecker et al., PRB 54, 1703 (1996)
                                          Hartwigsen et al., PRB 58, 3641 (1998)
                                                      Krack, TCA 114, 145 (2005)

       Gaussian exponent of the core charge distribution:               1.366027
       Electronic configuration (s p d ...):                               2   3

       Parameters of the local part of the GTH pseudopotential:

                          rloc        C1          C2          C3          C4
                        0.605000    7.945757

       Parameters of the non-local part of the GTH pseudopotential:

                   l      r(l)      h(i,j,l)

                   0    0.582232    0.643735    2.247616   -1.440601
                                    2.247616   -5.244797    3.719615
                                   -1.440601    3.719615   -2.952353
                   1    0.766394    0.212533    0.379834
                                    0.379834   -0.449426
                   2    0.965655    0.347298

  2. Atomic kind: O                                     Number of atoms:     144

     Orbital Basis Set                                            SZV-MOLOPT-GTH

       Number of orbital shell sets:                                           1
       Number of orbital shells:                                               2
       Number of primitive Cartesian functions:                                7
       Number of Cartesian basis functions:                                    4
       Number of spherical basis functions:                                    4
       Norm type:                                                              2

       Normalised Cartesian orbitals:

                        Set   Shell   Orbital            Exponent    Coefficient

                          1       1    2s               12.015955      -0.284499
                                                         5.108150      -0.322498
                                                         2.048398       0.148191
                                                         0.832382       0.295475
                                                         0.352316       0.150829
                                                         0.142977       0.015788
                                                         0.046761      -0.000019

                          1       2    3px              12.015955       1.192141
                                                         5.108150       1.354170
                                                         2.048398       0.897267
                                                         0.832382       0.408839
                                                         0.352316       0.116648
                                                         0.142977       0.022184
                                                         0.046761       0.000308
                          1       2    3py              12.015955       1.192141
                                                         5.108150       1.354170
                                                         2.048398       0.897267
                                                         0.832382       0.408839
                                                         0.352316       0.116648
                                                         0.142977       0.022184
                                                         0.046761       0.000308
                          1       2    3pz              12.015955       1.192141
                                                         5.108150       1.354170
                                                         2.048398       0.897267
                                                         0.832382       0.408839
                                                         0.352316       0.116648
                                                         0.142977       0.022184
                                                         0.046761       0.000308

     GTH Potential information for                                    GTH-PBE-q6

       Description:                       Goedecker-Teter-Hutter pseudopotential
                                           Goedecker et al., PRB 54, 1703 (1996)
                                          Hartwigsen et al., PRB 58, 3641 (1998)
                                                      Krack, TCA 114, 145 (2005)

       Gaussian exponent of the core charge distribution:               8.360253
       Electronic configuration (s p d ...):                               2   4

       Parameters of the local part of the GTH pseudopotential:

                          rloc        C1          C2          C3          C4
                        0.244554  -16.667215    2.487311

       Parameters of the non-local part of the GTH pseudopotential:

                   l      r(l)      h(i,j,l)

                   0    0.220956   18.337458
                   1    0.211332

  3. Atomic kind: V                                     Number of atoms:      36

     Orbital Basis Set                                         SZV-MOLOPT-SR-GTH

       Number of orbital shell sets:                                           1
       Number of orbital shells:                                               4
       Number of primitive Cartesian functions:                                6
       Number of Cartesian basis functions:                                   11
       Number of spherical basis functions:                                   10
       Norm type:                                                              2

       Normalised Cartesian orbitals:

                        Set   Shell   Orbital            Exponent    Coefficient

                          1       1    2s                7.984624       0.068312
                                                         4.192170       0.996465
                                                         1.674403      -0.695882
                                                         0.666665      -0.342831
                                                         0.242420      -0.011700
                                                         0.067390      -0.000008

                          1       2    3s                7.984624       0.010854
                                                         4.192170       0.224393
                                                         1.674403      -0.208460
                                                         0.666665      -0.212021
                                                         0.242420       0.023706
                                                         0.067390       0.098708

                          1       3    3px               7.984624      -2.273073
                                                         4.192170       1.136092
                                                         1.674403       1.409224
                                                         0.666665       0.387613
                                                         0.242420       0.019510
                                                         0.067390      -0.000216
                          1       3    3py               7.984624      -2.273073
                                                         4.192170       1.136092
                                                         1.674403       1.409224
                                                         0.666665       0.387613
                                                         0.242420       0.019510
                                                         0.067390      -0.000216
                          1       3    3pz               7.984624      -2.273073
                                                         4.192170       1.136092
                                                         1.674403       1.409224
                                                         0.666665       0.387613
                                                         0.242420       0.019510
                                                         0.067390      -0.000216

                          1       4    4dx2              7.984624       3.479555
                                                         4.192170       3.995918
                                                         1.674403       1.309836
                                                         0.666665       0.287934
                                                         0.242420       0.045388
                                                         0.067390       0.001996
                          1       4    4dxy              7.984624       6.026766
                                                         4.192170       6.921133
                                                         1.674403       2.268703
                                                         0.666665       0.498717
                                                         0.242420       0.078614
                                                         0.067390       0.003457
                          1       4    4dxz              7.984624       6.026766
                                                         4.192170       6.921133
                                                         1.674403       2.268703
                                                         0.666665       0.498717
                                                         0.242420       0.078614
                                                         0.067390       0.003457
                          1       4    4dy2              7.984624       3.479555
                                                         4.192170       3.995918
                                                         1.674403       1.309836
                                                         0.666665       0.287934
                                                         0.242420       0.045388
                                                         0.067390       0.001996
                          1       4    4dyz              7.984624       6.026766
                                                         4.192170       6.921133
                                                         1.674403       2.268703
                                                         0.666665       0.498717
                                                         0.242420       0.078614
                                                         0.067390       0.003457
                          1       4    4dz2              7.984624       3.479555
                                                         4.192170       3.995918
                                                         1.674403       1.309836
                                                         0.666665       0.287934
                                                         0.242420       0.045388
                                                         0.067390       0.001996

     GTH Potential information for                                   GTH-PBE-q13

       Description:                       Goedecker-Teter-Hutter pseudopotential
                                           Goedecker et al., PRB 54, 1703 (1996)
                                          Hartwigsen et al., PRB 58, 3641 (1998)
                                                      Krack, TCA 114, 145 (2005)

       Gaussian exponent of the core charge distribution:               3.555556
       Electronic configuration (s p d ...):                           4   6   3

       Parameters of the local part of the GTH pseudopotential:

                          rloc        C1          C2          C3          C4
                        0.375000    7.474704   -0.370264

       Parameters of the non-local part of the GTH pseudopotential:

                   l      r(l)      h(i,j,l)

                   0    0.327795    1.940878    4.725688
                                    4.725688   -6.100837
                   1    0.244766   -5.978167    9.358639
                                    9.358639  -11.073291
                   2    0.241739   -9.499891

     A DFT+U correction is applied to atoms of this atomic kind:
       Angular quantum momentum number L:                                      2
       U(eff) = (U - J) value in [eV]:                                     6.000


 MOLECULE KIND INFORMATION


 All atoms are their own molecule, skipping detailed information


 TOTAL NUMBERS AND MAXIMUM NUMBERS

  Total number of            - Atomic kinds:                                   3
                             - Atoms:                                        216
                             - Shell sets:                                   216
                             - Shells:                                       504
                             - Primitive Cartesian functions:               1404
                             - Cartesian basis functions:                   1116
                             - Spherical basis functions:                   1080

  Maximum angular momentum of- Orbital basis functions:                        2
                             - Local part of the GTH pseudopotential:          2
                             - Non-local part of the GTH pseudopotential:      4


 MODULE QUICKSTEP:  ATOMIC COORDINATES IN angstrom

  Atom  Kind  Element       X           Y           Z          Z(eff)       Mass

       1     1 Bi  83    2.589088    1.285360   10.227995      5.00     208.9804
       2     1 Bi  83    2.569459    6.370335   10.223087      5.00     208.9804
       3     1 Bi  83    2.524011   11.466323   10.240947      5.00     208.9804
       4     1 Bi  83    7.788245    1.292069   10.245506      5.00     208.9804
       5     1 Bi  83    7.750840    6.366732   10.236573      5.00     208.9804
       6     1 Bi  83    7.713436   11.441397   10.245506      5.00     208.9804
       7     1 Bi  83   12.977670    1.267143   10.240947      5.00     208.9804
       8     1 Bi  83   12.932223    6.363130   10.223087      5.00     208.9804
       9     1 Bi  83   12.912594   11.448105   10.227995      5.00     208.9804
      10     1 Bi  83    2.562698    3.829062    1.464601      5.00     208.9804
      11     1 Bi  83    2.551467    8.921473    1.477097      5.00     208.9804
      12     1 Bi  83    2.503006   14.016010    1.470443      5.00     208.9804
      13     1 Bi  83    7.751057    3.844342    1.516546      5.00     208.9804
      14     1 Bi  83    7.750624    8.889122    1.516546      5.00     208.9804
      15     1 Bi  83    7.699769   14.006812    1.467302      5.00     208.9804
      16     1 Bi  83   12.950214    3.811993    1.477097      5.00     208.9804
      17     1 Bi  83   12.938983    8.904403    1.464601      5.00     208.9804
      18     1 Bi  83   12.896533   13.997615    1.470443      5.00     208.9804
      19     1 Bi  83   -0.010283    1.276299    7.321742      5.00     208.9804
      20     1 Bi  83   -0.042559    6.366733    7.323097      5.00     208.9804
      21     1 Bi  83   -0.074835   11.457167    7.321742      5.00     208.9804
      22     1 Bi  83    5.187216    1.295763    7.314391      5.00     208.9804
      23     1 Bi  83    5.174869    6.382545    7.280192      5.00     208.9804
      24     1 Bi  83    5.119868   11.472870    7.328078      5.00     208.9804
      25     1 Bi  83   10.381813    1.260594    7.328078      5.00     208.9804
      26     1 Bi  83   10.326813    6.350920    7.280194      5.00     208.9804
      27     1 Bi  83   10.314466   11.437703    7.314391      5.00     208.9804
      28     1 Bi  83   -0.025984    3.820803    4.382242      5.00     208.9804
      29     1 Bi  83   -0.059134    8.912662    4.382242      5.00     208.9804
      30     1 Bi  83   -0.093630   14.006812    4.382821      5.00     208.9804
      31     1 Bi  83    5.185537    3.854603    4.355130      5.00     208.9804
      32     1 Bi  83    5.167384    8.901155    4.416299      5.00     208.9804
      33     1 Bi  83    5.098345   14.013689    4.382814      5.00     208.9804
      34     1 Bi  83   10.334298    3.832308    4.416301      5.00     208.9804
      35     1 Bi  83   10.316144    8.878863    4.355130      5.00     208.9804
      36     1 Bi  83   10.301194   13.999935    4.382814      5.00     208.9804
      37     2 O    8    3.895918    2.023335    0.519067      6.00      15.9994
      38     2 O    8    3.915174    7.124652    0.524263      6.00      15.9994
      39     2 O    8    3.826187   12.215113    0.518929      6.00      15.9994
      40     2 O    8    9.087916    1.979955    0.519558      6.00      15.9994
      41     2 O    8    9.056963    7.076474    0.524270      6.00      15.9994
      42     2 O    8    9.017212   12.171484    0.520966      6.00      15.9994
      43     2 O    8   14.277032    1.985065    0.522639      6.00      15.9994
      44     2 O    8   14.244186    7.074302    0.521131      6.00      15.9994
      45     2 O    8   14.214533   12.168226    0.521628      6.00      15.9994
      46     2 O    8    3.296421    2.542982    3.440712      6.00      15.9994
      47     2 O    8    3.274539    7.634634    3.445979      6.00      15.9994
      48     2 O    8    3.237641   12.735997    3.447954      6.00      15.9994
      49     2 O    8    8.497567    2.543869    3.456195      6.00      15.9994
      50     2 O    8    8.588754    7.585933    3.380741      6.00      15.9994
      51     2 O    8    8.436822   12.726302    3.451997      6.00      15.9994
      52     2 O    8   13.692002    2.546016    3.448876      6.00      15.9994
      53     2 O    8   13.676371    7.637460    3.453248      6.00      15.9994
      54     2 O    8   13.628015   12.729240    3.453963      6.00      15.9994
      55     2 O    8    1.276348    4.550480    6.371799      6.00      15.9994
      56     2 O    8    1.242505    9.630736    6.376295      6.00      15.9994
      57     2 O    8    1.208688   14.734527    6.373364      6.00      15.9994
      58     2 O    8    6.465321    4.573195    6.356981      6.00      15.9994
      59     2 O    8    6.433559    9.702770    6.381560      6.00      15.9994
      60     2 O    8    6.409955   14.748594    6.372865      6.00      15.9994
      61     2 O    8   11.666747    4.526337    6.374239      6.00      15.9994
      62     2 O    8   11.636205    9.622597    6.380579      6.00      15.9994
      63     2 O    8   11.602235   14.709411    6.371145      6.00      15.9994
      64     2 O    8    0.723678   -0.000270    9.300547      6.00      15.9994
      65     2 O    8    0.692319    5.096674    9.302618      6.00      15.9994
      66     2 O    8    0.659666   10.185318    9.300943      6.00      15.9994
      67     2 O    8    5.921556    0.002128    9.299889      6.00      15.9994
      68     2 O    8    5.886125    5.097688    9.304816      6.00      15.9994
      69     2 O    8    5.848741   10.188944    9.302407      6.00      15.9994
      70     2 O    8   11.118116   -0.013616    9.309899      6.00      15.9994
      71     2 O    8   11.082465    5.077948    9.306867      6.00      15.9994
      72     2 O    8   11.050052   10.180687    9.302846      6.00      15.9994
      73     2 O    8    1.771524   15.284384    3.453963      6.00      15.9994
      74     2 O    8    1.825310    5.096005    3.453248      6.00      15.9994
      75     2 O    8    1.809679   10.187450    3.448876      6.00      15.9994
      76     2 O    8    6.962718   15.287323    3.451997      6.00      15.9994
      77     2 O    8    6.912928    5.147529    3.380740      6.00      15.9994
      78     2 O    8    7.004114   10.189596    3.456194      6.00      15.9994
      79     2 O    8   12.161898   15.277628    3.447954      6.00      15.9994
      80     2 O    8   12.227142    5.098831    3.445979      6.00      15.9994
      81     2 O    8   12.205260   10.190484    3.440711      6.00      15.9994
      82     2 O    8    0.699420    2.543887    2.405402      6.00      15.9994
      83     2 O    8    0.672945    7.638775    2.402743      6.00      15.9994
      84     2 O    8    0.639642   12.734893    2.403195      6.00      15.9994
      85     2 O    8    5.898190    2.545069    2.403739      6.00      15.9994
      86     2 O    8    5.903294    7.641485    2.429822      6.00      15.9994
      87     2 O    8    5.836419   12.734398    2.405278      6.00      15.9994
      88     2 O    8   11.099059    2.537460    2.392714      6.00      15.9994
      89     2 O    8   11.122627    7.632396    2.391573      6.00      15.9994
      90     2 O    8   11.031946   12.725677    2.395918      6.00      15.9994
      91     2 O    8    4.451629    2.552778    9.302846      6.00      15.9994
      92     2 O    8    4.419216    7.655517    9.306867      6.00      15.9994
      93     2 O    8    4.383566   12.747081    9.309898      6.00      15.9994
      94     2 O    8    9.652940    2.544522    9.302407      6.00      15.9994
      95     2 O    8    9.615556    7.635779    9.304816      6.00      15.9994
      96     2 O    8    9.580126   12.731338    9.299889      6.00      15.9994
      97     2 O    8   14.842016    2.548148    9.300943      6.00      15.9994
      98     2 O    8   14.809362    7.636792    9.302618      6.00      15.9994
      99     2 O    8   14.778003   12.733736    9.300546      6.00      15.9994
     100     2 O    8    1.266081    3.109044   11.180438      6.00      15.9994
     101     2 O    8    1.238834    8.202183   11.183173      6.00      15.9994
     102     2 O    8    1.202399   13.297124   11.183625      6.00      15.9994
     103     2 O    8    6.459627    3.109486   11.183012      6.00      15.9994
     104     2 O    8    6.438156    8.203917   11.180170      6.00      15.9994
     105     2 O    8    6.401795   13.293783   11.181540      6.00      15.9994
     106     2 O    8   11.658881    3.066794   11.187069      6.00      15.9994
     107     2 O    8   11.627420    8.168943   11.182349      6.00      15.9994
     108     2 O    8   11.586439   13.252303   11.185125      6.00      15.9994
     109     2 O    8    1.848995    2.549581    8.254654      6.00      15.9994
     110     2 O    8    1.822171    7.642021    8.254751      6.00      15.9994
     111     2 O    8    1.789488   12.738809    8.252432      6.00      15.9994
     112     2 O    8    7.048612    2.601275    8.246633      6.00      15.9994
     113     2 O    8    7.018962    7.647161    8.253698      6.00      15.9994
     114     2 O    8    6.985050   12.736438    8.253604      6.00      15.9994
     115     2 O    8   12.248838    2.545405    8.257344      6.00      15.9994
     116     2 O    8   12.220023    7.642396    8.260297      6.00      15.9994
     117     2 O    8   12.177480   12.727674    8.255301      6.00      15.9994
     118     2 O    8    3.888884    0.569092    5.331912      6.00      15.9994
     119     2 O    8    3.856170    5.662414    5.326769      6.00      15.9994
     120     2 O    8    3.815420   10.756123    5.336774      6.00      15.9994
     121     2 O    8    9.079561    0.520108    5.329889      6.00      15.9994
     122     2 O    8    8.990902    5.515042    5.439513      6.00      15.9994
     123     2 O    8    8.995728   10.713467    5.334091      6.00      15.9994
     124     2 O    8   14.276669    0.557138    5.329216      6.00      15.9994
     125     2 O    8   14.239055    5.640847    5.330361      6.00      15.9994
     126     2 O    8   14.207596   10.725874    5.331814      6.00      15.9994
     127     2 O    8    4.367594   15.287948    2.395918      6.00      15.9994
     128     2 O    8    4.379054    5.101069    2.391573      6.00      15.9994
     129     2 O    8    4.402622   10.196006    2.392714      6.00      15.9994
     130     2 O    8    9.563120   15.279227    2.405277      6.00      15.9994
     131     2 O    8    9.598387    5.091982    2.429828      6.00      15.9994
     132     2 O    8    9.603491   10.188397    2.403739      6.00      15.9994
     133     2 O    8   14.759897   15.278731    2.403195      6.00      15.9994
     134     2 O    8   14.828736    5.094691    2.402743      6.00      15.9994
     135     2 O    8   14.802261   10.189579    2.405402      6.00      15.9994
     136     2 O    8    3.874260    4.564520   11.182349      6.00      15.9994
     137     2 O    8    3.842800    9.666671   11.187069      6.00      15.9994
     138     2 O    8    3.813100   14.761321   11.185125      6.00      15.9994
     139     2 O    8    9.063525    4.529548   11.180170      6.00      15.9994
     140     2 O    8    9.042055    9.623980   11.183012      6.00      15.9994
     141     2 O    8    8.997744   14.719841   11.181540      6.00      15.9994
     142     2 O    8   14.262847    4.531282   11.183173      6.00      15.9994
     143     2 O    8   14.235600    9.624422   11.180438      6.00      15.9994
     144     2 O    8   14.197140   14.716501   11.183625      6.00      15.9994
     145     2 O    8    3.324201    0.005792    8.255301      6.00      15.9994
     146     2 O    8    3.281658    5.091070    8.260297      6.00      15.9994
     147     2 O    8    3.252843   10.188061    8.257344      6.00      15.9994
     148     2 O    8    8.516631   -0.002973    8.253604      6.00      15.9994
     149     2 O    8    8.482720    5.086303    8.253698      6.00      15.9994
     150     2 O    8    8.453070   10.132192    8.246634      6.00      15.9994
     151     2 O    8   13.712193   -0.005343    8.252432      6.00      15.9994
     152     2 O    8   13.679510    5.091445    8.254751      6.00      15.9994
     153     2 O    8   13.652687   10.183885    8.254654      6.00      15.9994
     154     2 O    8    1.294085    2.007590    5.331814      6.00      15.9994
     155     2 O    8    1.262626    7.092617    5.330361      6.00      15.9994
     156     2 O    8    1.225012   12.176327    5.329216      6.00      15.9994
     157     2 O    8    6.505951    2.019997    5.334091      6.00      15.9994
     158     2 O    8    6.510775    7.218411    5.439500      6.00      15.9994
     159     2 O    8    6.422120   12.213355    5.329889      6.00      15.9994
     160     2 O    8   11.686261    1.977342    5.336774      6.00      15.9994
     161     2 O    8   11.645510    7.071051    5.326769      6.00      15.9994
     162     2 O    8   11.612797   12.164374    5.331912      6.00      15.9994
     163     2 O    8    3.865476    3.110868    6.380579      6.00      15.9994
     164     2 O    8    3.834934    8.207128    6.374239      6.00      15.9994
     165     2 O    8    3.797304   13.304213    6.371146      6.00      15.9994
     166     2 O    8    9.068121    3.030683    6.381560      6.00      15.9994
     167     2 O    8    9.036359    8.160268    6.356980      6.00      15.9994
     168     2 O    8    8.989584   13.265029    6.372865      6.00      15.9994
     169     2 O    8   14.259176    3.102730    6.376295      6.00      15.9994
     170     2 O    8   14.225333    8.182981    6.371799      6.00      15.9994
     171     2 O    8   14.190851   13.279097    6.373364      6.00      15.9994
     172     2 O    8    1.287148    0.565239    0.521628      6.00      15.9994
     173     2 O    8    1.257495    5.659163    0.521131      6.00      15.9994
     174     2 O    8    1.224650   10.748401    0.522639      6.00      15.9994
     175     2 O    8    6.484470    0.561981    0.520966      6.00      15.9994
     176     2 O    8    6.444718    5.656990    0.524269      6.00      15.9994
     177     2 O    8    6.413765   10.753510    0.519558      6.00      15.9994
     178     2 O    8   11.675494    0.518352    0.518929      6.00      15.9994
     179     2 O    8   11.586506    5.608814    0.524264      6.00      15.9994
     180     2 O    8   11.605763   10.710130    0.519067      6.00      15.9994
     181     3 V   23   -0.011439    1.273502    1.448323     13.00      50.9415
     182     3 V   23   -0.042559    6.366733    1.447144     13.00      50.9415
     183     3 V   23   -0.073679   11.459963    1.448323     13.00      50.9415
     184     3 V   23    5.182170    1.281120    1.439168     13.00      50.9415
     185     3 V   23    5.167010    6.370015    1.476592     13.00      50.9415
     186     3 V   23    5.117304   11.467944    1.440093     13.00      50.9415
     187     3 V   23   10.384377    1.265522    1.440093     13.00      50.9415
     188     3 V   23   10.334671    6.363450    1.476594     13.00      50.9415
     189     3 V   23   10.319512   11.452346    1.439168     13.00      50.9415
     190     3 V   23    2.569571    3.826132    7.301194     13.00      50.9415
     191     3 V   23    2.538463    8.917521    7.302330     13.00      50.9415
     192     3 V   23    2.503315   14.014711    7.299885     13.00      50.9415
     193     3 V   23    7.779083    3.839043    7.259815     13.00      50.9415
     194     3 V   23    7.722600    8.894422    7.259817     13.00      50.9415
     195     3 V   23    7.699770   14.006812    7.293997     13.00      50.9415
     196     3 V   23   12.963219    3.815945    7.302330     13.00      50.9415
     197     3 V   23   12.932111    8.907333    7.301194     13.00      50.9415
     198     3 V   23   12.896224   13.998914    7.299885     13.00      50.9415
     199     3 V   23   -0.029393    3.823386   10.254502     13.00      50.9415
     200     3 V   23   -0.055726    8.910080   10.254502     13.00      50.9415
     201     3 V   23   -0.093630   14.006812   10.255140     13.00      50.9415
     202     3 V   23    5.168300    3.830684   10.257439     13.00      50.9415
     203     3 V   23    5.135729    8.919409   10.268447     13.00      50.9415
     204     3 V   23    5.102686   14.019479   10.263194     13.00      50.9415
     205     3 V   23   10.365953    3.814056   10.268448     13.00      50.9415
     206     3 V   23   10.333381    8.902781   10.257440     13.00      50.9415
     207     3 V   23   10.296853   13.994146   10.263195     13.00      50.9415
     208     3 V   23    2.588765    1.283214    4.406464     13.00      50.9415
     209     3 V   23    2.551903    6.369933    4.401504     13.00      50.9415
     210     3 V   23    2.525099   11.461488    4.404765     13.00      50.9415
     211     3 V   23    7.787451    1.268662    4.415934     13.00      50.9415
     212     3 V   23    7.750843    6.366728    4.422943     13.00      50.9415
     213     3 V   23    7.714231   11.464803    4.415933     13.00      50.9415
     214     3 V   23   12.976582    1.271977    4.404765     13.00      50.9415
     215     3 V   23   12.949778    6.363532    4.401504     13.00      50.9415
     216     3 V   23   12.912916   11.450251    4.406464     13.00      50.9415




 SCF PARAMETERS         Density guess:                                   RESTART
                        --------------------------------------------------------
                        max_scf:                                             500
                        max_scf_history:                                       0
                        max_diis:                                              4
                        --------------------------------------------------------
                        eps_scf:                                        1.00E-05
                        eps_scf_history:                                0.00E+00
                        eps_diis:                                       5.00E-01
                        eps_eigval:                                     1.00E-05
                        --------------------------------------------------------
                        level_shift [a.u.]:                                 0.00
                        --------------------------------------------------------
                        Mixing method:                            BROYDEN_MIXING
                                                charge density mixing in g-space
                        --------------------------------------------------------
                        Outer loop SCF in use 
                        No variables optimised in outer loop
                        eps_scf                                         1.00E-05
                        max_scf                                              500
                        No outer loop optimization
                        step_size                                       5.00E-01

 PW_GRID| Information for grid number                                          1
 PW_GRID| Grid distributed over                                   128 processors
 PW_GRID| Real space group dimensions                                   128    1
 PW_GRID| the grid is blocked:                                                NO
 PW_GRID| Cutoff [a.u.]                                                    325.0
 PW_GRID| spherical cutoff:                                                   NO
 PW_GRID|   Bounds   1           -120     119                Points:         240
 PW_GRID|   Bounds   2           -120     119                Points:         240
 PW_GRID|   Bounds   3            -90      89                Points:         180
 PW_GRID| Volume element (a.u.^3)  0.1814E-02     Volume (a.u.^3)     18811.9713
 PW_GRID| Grid span                                                    FULLSPACE
 PW_GRID|   Distribution                         Average         Max         Min
 PW_GRID|   G-Vectors                            81000.0       81120       80880
 PW_GRID|   G-Rays                                 337.5         338         337
 PW_GRID|   Real Space Points                    81000.0       86400       43200

 PW_GRID| Information for grid number                                          2
 PW_GRID| Grid distributed over                                   128 processors
 PW_GRID| Real space group dimensions                                   128    1
 PW_GRID| the grid is blocked:                                                NO
 PW_GRID| Cutoff [a.u.]                                                    108.3
 PW_GRID| spherical cutoff:                                                   NO
 PW_GRID|   Bounds   1            -70      69                Points:         140
 PW_GRID|   Bounds   2            -67      67                Points:         135
 PW_GRID|   Bounds   3            -52      52                Points:         105
 PW_GRID| Volume element (a.u.^3)  0.9479E-02     Volume (a.u.^3)     18811.9713
 PW_GRID| Grid span                                                    FULLSPACE
 PW_GRID|   Distribution                         Average         Max         Min
 PW_GRID|   G-Vectors                            15503.9       16100       14840
 PW_GRID|   G-Rays                                 110.7         115         106
 PW_GRID|   Real Space Points                    15503.9       28350       14175

 PW_GRID| Information for grid number                                          3
 PW_GRID| Grid distributed over                                   128 processors
 PW_GRID| Real space group dimensions                                     8   16
 PW_GRID| the grid is blocked:                                                NO
 PW_GRID| Cutoff [a.u.]                                                     36.1
 PW_GRID| spherical cutoff:                                                   NO
 PW_GRID|   Bounds   1            -40      39                Points:          80
 PW_GRID|   Bounds   2            -40      39                Points:          80
 PW_GRID|   Bounds   3            -30      29                Points:          60
 PW_GRID| Volume element (a.u.^3)  0.4899E-01     Volume (a.u.^3)     18811.9713
 PW_GRID| Grid span                                                    FULLSPACE
 PW_GRID|   Distribution                         Average         Max         Min
 PW_GRID|   G-Vectors                             3000.0        3360        2560
 PW_GRID|   G-Rays                                  37.5          42          32
 PW_GRID|   Real Space Points                     3000.0        3000        3000

 PW_GRID| Information for grid number                                          4
 PW_GRID| Grid distributed over                                   128 processors
 PW_GRID| Real space group dimensions                                     8   16
 PW_GRID| the grid is blocked:                                                NO
 PW_GRID| Cutoff [a.u.]                                                     12.0
 PW_GRID| spherical cutoff:                                                   NO
 PW_GRID|   Bounds   1            -24      23                Points:          48
 PW_GRID|   Bounds   2            -22      22                Points:          45
 PW_GRID|   Bounds   3            -17      17                Points:          35
 PW_GRID| Volume element (a.u.^3)  0.2488         Volume (a.u.^3)     18811.9713
 PW_GRID| Grid span                                                    FULLSPACE
 PW_GRID|   Distribution                         Average         Max         Min
 PW_GRID|   G-Vectors                              590.6         672         480
 PW_GRID|   G-Rays                                  12.3          14          10
 PW_GRID|   Real Space Points                      590.6         630         420

 PW_GRID| Information for grid number                                          5
 PW_GRID| Grid distributed over                                   128 processors
 PW_GRID| Real space group dimensions                                     8   16
 PW_GRID| the grid is blocked:                                                NO
 PW_GRID| Cutoff [a.u.]                                                      4.0
 PW_GRID| spherical cutoff:                                                   NO
 PW_GRID|   Bounds   1            -13      13                Points:          27
 PW_GRID|   Bounds   2            -13      13                Points:          27
 PW_GRID|   Bounds   3            -10       9                Points:          20
 PW_GRID| Volume element (a.u.^3)   1.290         Volume (a.u.^3)     18811.9713
 PW_GRID| Grid span                                                    FULLSPACE
 PW_GRID|   Distribution                         Average         Max         Min
 PW_GRID|   G-Vectors                              113.9         135          81
 PW_GRID|   G-Rays                                   4.2           5           3
 PW_GRID|   Real Space Points                      113.9         160          60

 PW_GRID| Information for grid number                                          6
 PW_GRID| Grid distributed over                                   128 processors
 PW_GRID| Real space group dimensions                                     8   16
 PW_GRID| the grid is blocked:                                                NO
 PW_GRID| Cutoff [a.u.]                                                      1.3
 PW_GRID| spherical cutoff:                                                   NO
 PW_GRID|   Bounds   1             -7       7                Points:          15
 PW_GRID|   Bounds   2             -7       7                Points:          15
 PW_GRID|   Bounds   3             -5       5                Points:          11
 PW_GRID| Volume element (a.u.^3)   7.601         Volume (a.u.^3)     18811.9713
 PW_GRID| Grid span                                                    FULLSPACE
 PW_GRID|   Distribution                         Average         Max         Min
 PW_GRID|   G-Vectors                               19.3          45           0
 PW_GRID|   G-Rays                                   1.3           3           0
 PW_GRID|   Real Space Points                       19.3          22           0

 PW_GRID| Information for grid number                                          7
 PW_GRID| Grid distributed over                                   128 processors
 PW_GRID| Real space group dimensions                                     8   16
 PW_GRID| the grid is blocked:                                                NO
 PW_GRID| Cutoff [a.u.]                                                      0.4
 PW_GRID| spherical cutoff:                                                   NO
 PW_GRID|   Bounds   1             -4       4                Points:           9
 PW_GRID|   Bounds   2             -4       4                Points:           9
 PW_GRID|   Bounds   3             -3       3                Points:           7
 PW_GRID| Volume element (a.u.^3)   33.18         Volume (a.u.^3)     18811.9713
 PW_GRID| Grid span                                                    FULLSPACE
 PW_GRID|   Distribution                         Average         Max         Min
 PW_GRID|   G-Vectors                                4.4           9           0
 PW_GRID|   G-Rays                                   0.5           1           0
 PW_GRID|   Real Space Points                        4.4          14           0

 PW_GRID| Information for grid number                                          8
 PW_GRID| Grid distributed over                                   128 processors
 PW_GRID| Real space group dimensions                                     8   16
 PW_GRID| the grid is blocked:                                                NO
 PW_GRID| Cutoff [a.u.]                                                      0.1
 PW_GRID| spherical cutoff:                                                   NO
 PW_GRID|   Bounds   1             -2       2                Points:           5
 PW_GRID|   Bounds   2             -2       2                Points:           5
 PW_GRID|   Bounds   3             -1       1                Points:           3
 PW_GRID| Volume element (a.u.^3)   250.8         Volume (a.u.^3)     18811.9713
 PW_GRID| Grid span                                                    FULLSPACE
 PW_GRID|   Distribution                         Average         Max         Min
 PW_GRID|   G-Vectors                                0.6           5           0
 PW_GRID|   G-Rays                                   0.1           1           0
 PW_GRID|   Real Space Points                        0.6           3           0

 PW_GRID| Information for grid number                                          9
 PW_GRID| Grid distributed over                                   128 processors
 PW_GRID| Real space group dimensions                                     8   16
 PW_GRID| the grid is blocked:                                                NO
 PW_GRID| Cutoff [a.u.]                                                      0.0
 PW_GRID| spherical cutoff:                                                   NO
 PW_GRID|   Bounds   1             -1       1                Points:           3
 PW_GRID|   Bounds   2             -1       1                Points:           3
 PW_GRID|   Bounds   3             -1       1                Points:           3
 PW_GRID| Volume element (a.u.^3)   696.7         Volume (a.u.^3)     18811.9713
 PW_GRID| Grid span                                                    FULLSPACE
 PW_GRID|   Distribution                         Average         Max         Min
 PW_GRID|   G-Vectors                                0.2           3           0
 PW_GRID|   G-Rays                                   0.1           1           0
 PW_GRID|   Real Space Points                        0.2           3           0

 PW_GRID| Information for grid number                                         10
 PW_GRID| Grid distributed over                                   128 processors
 PW_GRID| Real space group dimensions                                     8   16
 PW_GRID| the grid is blocked:                                                NO
 PW_GRID| Cutoff [a.u.]                                                      0.0
 PW_GRID| spherical cutoff:                                                   NO
 PW_GRID|   Bounds   1              0       0                Points:           1
 PW_GRID|   Bounds   2              0       0                Points:           1
 PW_GRID|   Bounds   3              0       0                Points:           1
 PW_GRID| Volume element (a.u.^3)  0.1881E+05     Volume (a.u.^3)     18811.9713
 PW_GRID| Grid span                                                    FULLSPACE
 PW_GRID|   Distribution                         Average         Max         Min
 PW_GRID|   G-Vectors                                0.0           1           0
 PW_GRID|   G-Rays                                   0.0           1           0
 PW_GRID|   Real Space Points                        0.0           1           0

 POISSON| Solver                                                        PERIODIC
 POISSON| Periodicity                                                        XYZ

 RS_GRID| Information for grid number                                          1
 RS_GRID|   Bounds   1           -120     119                Points:         240
 RS_GRID|   Bounds   2           -120     119                Points:         240
 RS_GRID|   Bounds   3            -90      89                Points:         180
 RS_GRID| Real space distribution over                                  8 groups
 RS_GRID| Real space distribution along direction                              1
 RS_GRID| Border size                                                         41
 RS_GRID| Real space distribution over                                 16 groups
 RS_GRID| Real space distribution along direction                              2
 RS_GRID| Border size                                                         41
 RS_GRID|   Distribution                         Average         Max         Min
 RS_GRID|   Planes                                 112.0         112         112
 RS_GRID|   Distribution                         Average         Max         Min
 RS_GRID|   Planes                                  97.0          97          97

 RS_GRID| Information for grid number                                          2
 RS_GRID|   Bounds   1            -70      69                Points:         140
 RS_GRID|   Bounds   2            -67      67                Points:         135
 RS_GRID|   Bounds   3            -52      52                Points:         105
 RS_GRID| Real space distribution over                                  8 groups
 RS_GRID| Real space distribution along direction                              1
 RS_GRID| Border size                                                         27
 RS_GRID| Real space distribution over                                 16 groups
 RS_GRID| Real space distribution along direction                              2
 RS_GRID| Border size                                                         27
 RS_GRID|   Distribution                         Average         Max         Min
 RS_GRID|   Planes                                  71.5          72          71
 RS_GRID|   Distribution                         Average         Max         Min
 RS_GRID|   Planes                                  62.4          63          62

 RS_GRID| Information for grid number                                          3
 RS_GRID|   Bounds   1            -40      39                Points:          80
 RS_GRID|   Bounds   2            -40      39                Points:          80
 RS_GRID|   Bounds   3            -30      29                Points:          60
 RS_GRID| Real space fully replicated
 RS_GRID| Group size                                                           1

 RS_GRID| Information for grid number                                          4
 RS_GRID|   Bounds   1            -24      23                Points:          48
 RS_GRID|   Bounds   2            -22      22                Points:          45
 RS_GRID|   Bounds   3            -17      17                Points:          35
 RS_GRID| Real space fully replicated
 RS_GRID| Group size                                                           1

 RS_GRID| Information for grid number                                          5
 RS_GRID|   Bounds   1            -13      13                Points:          27
 RS_GRID|   Bounds   2            -13      13                Points:          27
 RS_GRID|   Bounds   3            -10       9                Points:          20
 RS_GRID| Real space fully replicated
 RS_GRID| Group size                                                           1

 RS_GRID| Information for grid number                                          6
 RS_GRID|   Bounds   1             -7       7                Points:          15
 RS_GRID|   Bounds   2             -7       7                Points:          15
 RS_GRID|   Bounds   3             -5       5                Points:          11
 RS_GRID| Real space fully replicated
 RS_GRID| Group size                                                           1

 RS_GRID| Information for grid number                                          7
 RS_GRID|   Bounds   1             -4       4                Points:           9
 RS_GRID|   Bounds   2             -4       4                Points:           9
 RS_GRID|   Bounds   3             -3       3                Points:           7
 RS_GRID| Real space fully replicated
 RS_GRID| Group size                                                           1

 RS_GRID| Information for grid number                                          8
 RS_GRID|   Bounds   1             -2       2                Points:           5
 RS_GRID|   Bounds   2             -2       2                Points:           5
 RS_GRID|   Bounds   3             -1       1                Points:           3
 RS_GRID| Real space fully replicated
 RS_GRID| Group size                                                           1

 RS_GRID| Information for grid number                                          9
 RS_GRID|   Bounds   1             -1       1                Points:           3
 RS_GRID|   Bounds   2             -1       1                Points:           3
 RS_GRID|   Bounds   3             -1       1                Points:           3
 RS_GRID| Real space fully replicated
 RS_GRID| Group size                                                           1

 RS_GRID| Information for grid number                                         10
 RS_GRID|   Bounds   1              0       0                Points:           1
 RS_GRID|   Bounds   2              0       0                Points:           1
 RS_GRID|   Bounds   3              0       0                Points:           1
 RS_GRID| Real space fully replicated
 RS_GRID| Group size                                                           1

 Spin 1

 Number of electrons:                                                        757
 Number of occupied orbitals:                                                757
 Number of molecular orbitals:                                               757

 Spin 2

 Number of electrons:                                                        756
 Number of occupied orbitals:                                                756
 Number of molecular orbitals:                                               756

 Number of orbital functions:                                               1080
 Number of independent orbital functions:                                   1080

 Extrapolation method: initial_guess


 SCF WAVEFUNCTION OPTIMIZATION

  Step     Update method      Time    Convergence         Total energy    Change
  ------------------------------------------------------------------------------
     1 NoMix/Diag. 0.40E+00    4.6     0.00004540     -5073.7480726326 -5.07E+03
     2 Broy./Diag. 0.40E+00    6.5     0.00007097     -5073.7482587946 -1.86E-04
     3 Broy./Diag. 0.40E+00    5.9     0.00001236     -5073.7479094331  3.49E-04
     4 Broy./Diag. 0.40E+00    5.7     0.00001768     -5073.7479656140 -5.62E-05
     5 Broy./Diag. 0.40E+00    5.6     0.00000883     -5073.7480757362 -1.10E-04

  *** SCF run converged in     5 steps ***


  Electronic density on regular grids:      -1512.9999999900        0.0000000100
  Core density on regular grids:             1511.9999999989       -0.0000000011
  Total charge density on r-space grids:       -0.9999999911
  Total charge density g-space grids:          -0.9999999911

  Overlap energy of the core charge distribution:               0.00000000287720
  Self energy of the core charge distribution:             -10976.12486590282424
  Core Hamiltonian energy:                                   3052.66170411679468
  Hartree energy:                                            3715.90184781382322
  Exchange-correlation energy:                               -873.97254058911358

  DFT+U energy:                                                 7.78577882220243

  Total energy:                                             -5073.74807573623912

  outer SCF iter =    1 RMS gradient =   0.88E-05 energy =      -5073.7480757362
  outer SCF loop converged in   1 iterations or    5 steps


  Integrated absolute spin density  :                               1.3831060037
  Ideal and single determinant S**2 :                    0.750000       0.776227

 !-----------------------------------------------------------------------------!
                     Mulliken Population Analysis

 #  Atom  Element  Kind  Atomic population (alpha,beta) Net charge  Spin moment
       1     Bi       1         1.857201     1.857156     1.285643     0.000045
       2     Bi       1         1.856763     1.856717     1.286521     0.000046
       3     Bi       1         1.857107     1.857067     1.285826     0.000040
       4     Bi       1         1.856513     1.856437     1.287050     0.000075
       5     Bi       1         1.853255     1.853235     1.293510     0.000019
       6     Bi       1         1.856513     1.856437     1.287050     0.000075
       7     Bi       1         1.857107     1.857067     1.285826     0.000040
       8     Bi       1         1.856763     1.856717     1.286521     0.000046
       9     Bi       1         1.857201     1.857156     1.285642     0.000045
      10     Bi       1         1.856250     1.855278     1.288472     0.000972
      11     Bi       1         1.857119     1.856809     1.286072     0.000311
      12     Bi       1         1.857448     1.857382     1.285170     0.000066
      13     Bi       1         1.863870     1.860667     1.275463     0.003203
      14     Bi       1         1.863870     1.860667     1.275464     0.003203
      15     Bi       1         1.857188     1.857142     1.285670     0.000047
      16     Bi       1         1.857119     1.856809     1.286072     0.000311
      17     Bi       1         1.856250     1.855278     1.288472     0.000972
      18     Bi       1         1.857448     1.857382     1.285170     0.000066
      19     Bi       1         1.857366     1.857292     1.285341     0.000074
      20     Bi       1         1.857138     1.857115     1.285747     0.000023
      21     Bi       1         1.857366     1.857293     1.285341     0.000074
      22     Bi       1         1.856928     1.856495     1.286577     0.000433
      23     Bi       1         1.863831     1.860441     1.275728     0.003391
      24     Bi       1         1.856832     1.855693     1.287475     0.001139
      25     Bi       1         1.856832     1.855693     1.287475     0.001139
      26     Bi       1         1.863831     1.860441     1.275728     0.003391
      27     Bi       1         1.856928     1.856495     1.286577     0.000433
      28     Bi       1         1.856255     1.856115     1.287629     0.000140
      29     Bi       1         1.856256     1.856115     1.287629     0.000140
      30     Bi       1         1.857783     1.857719     1.284498     0.000064
      31     Bi       1         1.866959     1.863589     1.269451     0.003370
      32     Bi       1         1.867466     1.864808     1.267726     0.002658
      33     Bi       1         1.856822     1.856652     1.286525     0.000170
      34     Bi       1         1.867467     1.864808     1.267725     0.002658
      35     Bi       1         1.866960     1.863590     1.269451     0.003370
      36     Bi       1         1.856822     1.856652     1.286525     0.000170
      37     O        2         3.313357     3.313542    -0.626898    -0.000185
      38     O        2         3.310149     3.311015    -0.621163    -0.000866
      39     O        2         3.315923     3.316548    -0.632471    -0.000625
      40     O        2         3.311221     3.312702    -0.623923    -0.001482
      41     O        2         3.310602     3.312536    -0.623138    -0.001934
      42     O        2         3.313387     3.313594    -0.626981    -0.000207
      43     O        2         3.313660     3.313982    -0.627642    -0.000322
      44     O        2         3.313739     3.314053    -0.627792    -0.000314
      45     O        2         3.313510     3.313728    -0.627238    -0.000219
      46     O        2         3.309473     3.311470    -0.620943    -0.001996
      47     O        2         3.311025     3.312332    -0.623358    -0.001307
      48     O        2         3.313204     3.313481    -0.626685    -0.000277
      49     O        2         3.312262     3.314466    -0.626728    -0.002203
      50     O        2         3.329484     3.341756    -0.671239    -0.012272
      51     O        2         3.311285     3.312568    -0.623853    -0.001282
      52     O        2         3.313352     3.313732    -0.627084    -0.000381
      53     O        2         3.312604     3.313617    -0.626221    -0.001013
      54     O        2         3.313787     3.314122    -0.627909    -0.000335
      55     O        2         3.314485     3.315427    -0.629912    -0.000942
      56     O        2         3.313198     3.313352    -0.626550    -0.000153
      57     O        2         3.314114     3.314431    -0.628545    -0.000317
      58     O        2         3.314525     3.316798    -0.631323    -0.002273
      59     O        2         3.314490     3.316232    -0.630722    -0.001742
      60     O        2         3.313885     3.314303    -0.628188    -0.000417
      61     O        2         3.313877     3.314356    -0.628233    -0.000479
      62     O        2         3.311294     3.313142    -0.624436    -0.001848
      63     O        2         3.312759     3.313181    -0.625940    -0.000423
      64     O        2         3.313163     3.313210    -0.626373    -0.000047
      65     O        2         3.313445     3.313676    -0.627121    -0.000231
      66     O        2         3.313438     3.313589    -0.627027    -0.000151
      67     O        2         3.311078     3.311306    -0.622383    -0.000228
      68     O        2         3.309306     3.309908    -0.619214    -0.000602
      69     O        2         3.312576     3.312919    -0.625495    -0.000344
      70     O        2         3.312708     3.313008    -0.625716    -0.000300
      71     O        2         3.310861     3.311446    -0.622307    -0.000585
      72     O        2         3.313917     3.314446    -0.628363    -0.000529
      73     O        2         3.313787     3.314122    -0.627909    -0.000335
      74     O        2         3.312604     3.313617    -0.626221    -0.001013
      75     O        2         3.313352     3.313732    -0.627084    -0.000381
      76     O        2         3.311285     3.312568    -0.623853    -0.001282
      77     O        2         3.329483     3.341756    -0.671239    -0.012272
      78     O        2         3.312262     3.314466    -0.626728    -0.002203
      79     O        2         3.313204     3.313481    -0.626685    -0.000277
      80     O        2         3.311025     3.312332    -0.623358    -0.001307
      81     O        2         3.309473     3.311470    -0.620943    -0.001996
      82     O        2         3.312231     3.312555    -0.624785    -0.000324
      83     O        2         3.312941     3.313245    -0.626185    -0.000304
      84     O        2         3.313316     3.313561    -0.626877    -0.000246
      85     O        2         3.312481     3.313019    -0.625500    -0.000538
      86     O        2         3.313625     3.315017    -0.628642    -0.001393
      87     O        2         3.312851     3.313779    -0.626629    -0.000928
      88     O        2         3.310387     3.312305    -0.622692    -0.001918
      89     O        2         3.313682     3.314667    -0.628350    -0.000985
      90     O        2         3.312356     3.312514    -0.624869    -0.000158
      91     O        2         3.313917     3.314446    -0.628363    -0.000529
      92     O        2         3.310861     3.311446    -0.622307    -0.000585
      93     O        2         3.312708     3.313008    -0.625716    -0.000300
      94     O        2         3.312576     3.312919    -0.625495    -0.000344
      95     O        2         3.309306     3.309908    -0.619214    -0.000602
      96     O        2         3.311078     3.311306    -0.622383    -0.000228
      97     O        2         3.313438     3.313589    -0.627027    -0.000151
      98     O        2         3.313445     3.313676    -0.627121    -0.000231
      99     O        2         3.313163     3.313210    -0.626373    -0.000047
     100     O        2         3.313680     3.313890    -0.627570    -0.000210
     101     O        2         3.312545     3.312688    -0.625233    -0.000143
     102     O        2         3.313651     3.313697    -0.627348    -0.000046
     103     O        2         3.311726     3.312387    -0.624112    -0.000661
     104     O        2         3.310557     3.311060    -0.621618    -0.000503
     105     O        2         3.313545     3.313869    -0.627414    -0.000324
     106     O        2         3.315684     3.316141    -0.631825    -0.000458
     107     O        2         3.314580     3.314940    -0.629520    -0.000360
     108     O        2         3.314650     3.314867    -0.629517    -0.000217
     109     O        2         3.314749     3.315395    -0.630143    -0.000646
     110     O        2         3.313247     3.313428    -0.626675    -0.000181
     111     O        2         3.312967     3.313254    -0.626221    -0.000287
     112     O        2         3.307634     3.309073    -0.616707    -0.001439
     113     O        2         3.308613     3.311405    -0.620019    -0.002792
     114     O        2         3.311941     3.312387    -0.624327    -0.000446
     115     O        2         3.311955     3.312143    -0.624098    -0.000187
     116     O        2         3.310777     3.312210    -0.622986    -0.001433
     117     O        2         3.312740     3.313163    -0.625903    -0.000424
     118     O        2         3.314008     3.314417    -0.628425    -0.000409
     119     O        2         3.313880     3.316016    -0.629896    -0.002136
     120     O        2         3.310769     3.312706    -0.623475    -0.001937
     121     O        2         3.313436     3.314568    -0.628004    -0.001132
     122     O        2         3.331820     3.342788    -0.674608    -0.010967
     123     O        2         3.312029     3.313372    -0.625401    -0.001343
     124     O        2         3.314229     3.314533    -0.628762    -0.000303
[...]
       149  O   2s              -0.010419
       150  O   2s              -0.013496
       158  O   2s              -0.493896
       158  O   3py              0.055713
       158  O   3pz             -0.143511
       158  O   3px             -0.115532
       167  O   3pz             -0.010612
       179  O   2s               0.011808
       185  V   3s              -0.044982
       185  V   4d+1            -0.015655
       188  V   3s              -0.044983
       188  V   4d+1             0.015656
       193  V   3s               0.051178
       193  V   4d-1            -0.017497
       194  V   3s               0.051181
       194  V   4d-1             0.017498
       212  V   3pz              0.055336
       212  V   4d-2            -0.098986
       212  V   4d+2             0.029923
  EIG. VAL/OCC. =     0.976795 /    0.954128
 -----------------------------
        13  Bi  3py             -0.018762
        13  Bi  3pz             -0.027182
        14  Bi  3py             -0.018763
        14  Bi  3pz              0.027184
        23  Bi  3py              0.010651
        23  Bi  3px              0.012708
        26  Bi  3py              0.010652
        26  Bi  3px              0.012709
        31  Bi  3py             -0.030184
        31  Bi  3px             -0.032905
        32  Bi  3pz              0.015507
        32  Bi  3px              0.028902
        34  Bi  3pz             -0.015507
        34  Bi  3px              0.028903
        35  Bi  3py             -0.030185
        35  Bi  3px             -0.032906
        50  O   2s               0.374109
        50  O   3py             -0.073873
        50  O   3pz              0.114977
        50  O   3px             -0.159725
        58  O   3py              0.012278
        58  O   3pz             -0.010843
        77  O   2s              -0.374085
        77  O   3py             -0.073864
        77  O   3pz             -0.114982
        77  O   3px             -0.159730
       112  O   2s              -0.017406
       122  O   2s              -0.231419
       122  O   3py              0.360205
       122  O   3pz             -0.260173
       122  O   3px              0.311391
       150  O   2s               0.017405
       158  O   2s               0.231391
       158  O   3py              0.360209
       158  O   3pz              0.260169
       158  O   3px              0.311386
       167  O   3py              0.012278
       167  O   3pz              0.010842
       185  V   3s               0.010515
       188  V   3s              -0.010517
       193  V   3s               0.069459
       193  V   4d-2             0.010909
       193  V   4d-1            -0.021822
       193  V   4d+1            -0.011798
       194  V   3s              -0.069456
       194  V   4d-2            -0.010909
       194  V   4d-1            -0.021821
       194  V   4d+1            -0.011798
       212  V   3py             -0.049291
       212  V   3px             -0.032494
       212  V   4d-1             0.021906
       212  V   4d+1             0.057211
  EIG. VAL/OCC. =     0.979588 /    0.959593
 -----------------------------
        13  Bi  3py              0.013088
        13  Bi  3px             -0.011384
        14  Bi  3py              0.013087
        14  Bi  3px             -0.011383
        23  Bi  3pz             -0.025248
        23  Bi  3px              0.018041
        26  Bi  3pz              0.025249
        26  Bi  3px              0.018042
        31  Bi  3py              0.028554
        31  Bi  3pz             -0.014986
        32  Bi  3py             -0.030848
        32  Bi  3px              0.029428
        34  Bi  3py             -0.030848
        34  Bi  3px              0.029428
        35  Bi  3py              0.028553
        35  Bi  3pz              0.014985
        38  O   2s               0.015207
        50  O   2s              -0.207658
        50  O   3py              0.327984
        50  O   3pz              0.277149
        50  O   3px             -0.344537
        77  O   2s               0.207672
        77  O   3py              0.327991
        77  O   3pz             -0.277151
        77  O   3px             -0.344535
        86  O   3pz             -0.010454
        86  O   3px             -0.011830
       122  O   2s              -0.360218
       122  O   3py             -0.170587
       122  O   3pz              0.125054
       122  O   3px              0.082244
       131  O   3pz              0.010454
       131  O   3px             -0.011830
       158  O   2s               0.360210
       158  O   3py             -0.170581
       158  O   3pz             -0.125052
       158  O   3px              0.082243
       179  O   2s              -0.015207
       185  V   3s              -0.061394
       185  V   4d+1            -0.019280
       188  V   3s               0.061392
       188  V   4d+1            -0.019280
       193  V   3s               0.012603
       194  V   3s              -0.012602
       212  V   3py             -0.034479
       212  V   3px              0.049630
       212  V   4d-1            -0.052045
       212  V   4d+1             0.019600
 NOTE: IF SOME ORBS ARE EXCLUDED CHECK THE TOTAL CHRG MIGHT NOT REFLECT THE WHOLE FRG CHRG
   MOA FOR FRAGMENTS
   -----------------
  FRAG   POP         CHRG          SPIN
      ----------------------------------------------------
    1     12.10054      0.89946      0.01184
    2     12.09306      0.90694      0.99378
    3     26.09811     -2.09811     -0.00745
    4     26.30475     -2.30475     -0.02512
 ..... END OF MOA ANALYSIS FOR FRAGEMENTS .....
  
 ..... END OF MOA ANALYSIS .....

 ENERGY| Total FORCE_EVAL ( QS ) energy (a.u.):            -5073.748075736239116


 -------------------------------------------------------------------------------
 -                                                                             -
 -                                DBCSR STATISTICS                             -
 -                                                                             -
 -------------------------------------------------------------------------------
 COUNTER                                    TOTAL       BLAS       SMM       ACC
 flops    10 x    21 x    10              5443200     100.0%      0.0%      0.0%
 flops    10 x    20 x    10             10368000     100.0%      0.0%      0.0%
 flops    10 x    21 x     4             10886400     100.0%      0.0%      0.0%
 flops     4 x    21 x    10             10886400     100.0%      0.0%      0.0%
 flops    10 x    20 x     4             20736000     100.0%      0.0%      0.0%
 flops     4 x    20 x    10             20736000     100.0%      0.0%      0.0%
 flops     4 x    21 x     4             21772800     100.0%      0.0%      0.0%
 flops     4 x    20 x     4             41472000     100.0%      0.0%      0.0%
 flops    10 x    10 x    52             41558400     100.0%      0.0%      0.0%
 flops    10 x    10 x    53             42357600     100.0%      0.0%      0.0%
 flops    10 x     4 x    52             80870400     100.0%      0.0%      0.0%
 flops     4 x    10 x    52             80870400     100.0%      0.0%      0.0%
 flops    10 x     4 x    53             82425600     100.0%      0.0%      0.0%
 flops     4 x    10 x    53             82425600     100.0%      0.0%      0.0%
 flops     4 x     4 x    52            162639360     100.0%      0.0%      0.0%
 flops     4 x     4 x    53            165767040     100.0%      0.0%      0.0%
 flops    10 x    10 x    32            409190400     100.0%      0.0%      0.0%
 flops    10 x    32 x    10            572313600     100.0%      0.0%      0.0%
 flops    10 x    10 x    64            716083200     100.0%      0.0%      0.0%
 flops    10 x     4 x    32            796262400     100.0%      0.0%      0.0%
 flops     4 x    10 x    32            796262400     100.0%      0.0%      0.0%
 flops    10 x    32 x     4           1144627200     100.0%      0.0%      0.0%
 flops     4 x    32 x    10           1144627200     100.0%      0.0%      0.0%
 flops    10 x     4 x    64           1393459200     100.0%      0.0%      0.0%
 flops     4 x    10 x    64           1393459200     100.0%      0.0%      0.0%
 flops     4 x     4 x    32           1601372160     100.0%      0.0%      0.0%
 flops     4 x    32 x     4           2289254400     100.0%      0.0%      0.0%
 flops     4 x     4 x    64           2802401280     100.0%      0.0%      0.0%
 flops inhomo. stacks                           0       0.0%      0.0%      0.0%
 flops total                        15.940528E+09     100.0%      0.0%      0.0%
 flops max/rank                    159.963744E+06     100.0%      0.0%      0.0%
 matmuls inhomo. stacks                         0       0.0%      0.0%      0.0%
 matmuls total                            7858944     100.0%      0.0%      0.0%
 number of processed stacks                123648     100.0%      0.0%      0.0%
 average stack size                                    63.6       0.0       0.0
 marketing flops                    26.470281E+09
 -------------------------------------------------------------------------------
 # multiplications                             15
 max memory usage/rank             230.440960E+06
 # max total images/rank                        2
 # max 3D layers                                1
 # MPI messages exchanged                   86400
 MPI messages size (bytes):
  total size                         3.066984E+09
  min size                          16.384000E+03
  max size                          76.160000E+03
  average size                      35.497500E+03
 MPI breakdown and total messages size (bytes):
             size <=      128                   0                        0
       128 < size <=     8192                   0                        0
      8192 < size <=    32768               33660                640946880
     32768 < size <=   131072               52740               2426037120
    131072 < size <=  4194304                   0                        0
   4194304 < size <= 16777216                   0                        0
  16777216 < size                               0                        0
 -------------------------------------------------------------------------------

 *** WARNING in dbcsr/mm/dbcsr_mm.F:268 :: Using a non-square number of ***
 *** MPI ranks might lead to poor performance.                          ***
 *** Used ranks: 128                                                    ***
 *** Suggested: 121 256                                                 ***

 -------------------------------------------------------------------------------

 MEMORY| Estimated peak process memory [MiB]                                 284

 -------------------------------------------------------------------------------
 ----                             MULTIGRID INFO                            ----
 -------------------------------------------------------------------------------
 count for grid        1:        1682526          cutoff [a.u.]          325.00
 count for grid        2:        1129274          cutoff [a.u.]          108.33
 count for grid        3:         901694          cutoff [a.u.]           36.11
 count for grid        4:        1100008          cutoff [a.u.]           12.04
 count for grid        5:         519910          cutoff [a.u.]            4.01
 count for grid        6:              0          cutoff [a.u.]            1.34
 count for grid        7:              0          cutoff [a.u.]            0.45
 count for grid        8:              0          cutoff [a.u.]            0.15
 count for grid        9:              0          cutoff [a.u.]            0.05
 count for grid       10:              0          cutoff [a.u.]            0.02
 total gridlevel count  :        5333412

 -------------------------------------------------------------------------------
 -                                                                             -
 -                         MESSAGE PASSING PERFORMANCE                         -
 -                                                                             -
 -------------------------------------------------------------------------------

 ROUTINE             CALLS      AVE VOLUME [Bytes]
 MP_Group               30
 MP_Bcast             2998                 200588.
 MP_Allreduce         9120                  45241.
 MP_Sync              1606
 MP_Alltoall           780                5587507.
 MP_ISendRecv        22352                   3833.
 MP_Wait             26378
 MP_comm_split        1331
 MP_ISend             4012                 128110.
 MP_IRecv             4092                 125394.
 MP_Recv                46                 276480.
 MP_Memory             962
 -------------------------------------------------------------------------------


 -------------------------------------------------------------------------------
 -                                                                             -
 -                           R E F E R E N C E S                               -
 -                                                                             -
 -------------------------------------------------------------------------------
 
 CP2K version 6.1, the CP2K developers group (2018).
 CP2K is freely available from https://www.cp2k.org/ .

 Schuett, Ole; Messmer, Peter; Hutter, Juerg; VandeVondele, Joost. 
 Electronic Structure Calculations on Graphics Processing Units, John Wiley & Sons, Ltd, 173-190 (2016). 
 GPU-Accelerated Sparse Matrix-Matrix Multiplication for Linear Scaling Density Functional Theory.
 http://dx.doi.org/10.1002/9781118670712.ch8


 Borstnik, U; VandeVondele, J; Weber, V; Hutter, J. 
 PARALLEL COMPUTING, 40 (5-6), 47-58 (2014). 
 Sparse matrix multiplication: The distributed block-compressed sparse
 row library.
 http://dx.doi.org/10.1016/j.parco.2014.03.012


 Hutter, J; Iannuzzi, M; Schiffmann, F; VandeVondele, J. 
 WILEY INTERDISCIPLINARY REVIEWS-COMPUTATIONAL MOLECULAR SCIENCE, 4 (1), 15-25 (2014). 
 CP2K: atomistic simulations of condensed matter systems.
 http://dx.doi.org/10.1002/wcms.1159


 VandeVondele, J; Hutter, J. 
 JOURNAL OF CHEMICAL PHYSICS, 127 (11), 114105 (2007). 
 Gaussian basis sets for accurate calculations on molecular systems in
 gas and condensed phases.
 http://dx.doi.org/10.1063/1.2770708


 Krack, M. 
 THEORETICAL CHEMISTRY ACCOUNTS, 114 (1-3), 145-152 (2005). 
 Pseudopotentials for H to Kr optimized for gradient-corrected
 exchange-correlation functionals.
 http://dx.doi.org/10.1007/s00214-005-0655-y


 VandeVondele, J; Krack, M; Mohamed, F; Parrinello, M; Chassaing, T;
 Hutter, J. COMPUTER PHYSICS COMMUNICATIONS, 167 (2), 103-128 (2005). 
 QUICKSTEP: Fast and accurate density functional calculations using a
 mixed Gaussian and plane waves approach.
 http://dx.doi.org/10.1016/j.cpc.2004.12.014


 Frigo, M; Johnson, SG. 
 PROCEEDINGS OF THE IEEE, 93 (2), 216-231 (2005). 
 The design and implementation of FFTW3.
 http://dx.doi.org/10.1109/JPROC.2004.840301


 Hartwigsen, C; Goedecker, S; Hutter, J. 
 PHYSICAL REVIEW B, 58 (7), 3641-3662 (1998). 
 Relativistic separable dual-space Gaussian pseudopotentials from H to Rn.
 http://dx.doi.org/10.1103/PhysRevB.58.3641


 Dudarev, SL; Botton, GA; Savrasov, SY; Humphreys, CJ; Sutton, AP. 
 PHYSICAL REVIEW B, 57 (3), 1505-1509 (1998). 
 Electron-energy-loss spectra and the structural stability of
 nickel oxide: An LSDA+U study.
 http://dx.doi.org/10.1103/PhysRevB.57.1505


 Lippert, G; Hutter, J; Parrinello, M. 
 MOLECULAR PHYSICS, 92 (3), 477-487 (1997). 
 A hybrid Gaussian and plane wave density functional scheme.
 http://dx.doi.org/10.1080/002689797170220


 Dudarev, SL; Manh, DN; Sutton, AP. 
 PHILOSOPHICAL MAGAZINE B, 75 (5), 613-628 (1997). 
 Effect of Mott-Hubbard correlations on the electronic
 structure and structural stability of uranium dioxide.
 http://dx.doi.org/10.1080/13642819708202343


 Perdew, JP; Burke, K; Ernzerhof, M. 
 PHYSICAL REVIEW LETTERS, 77 (18), 3865-3868 (1996). 
 Generalized gradient approximation made simple.
 http://dx.doi.org/10.1103/PhysRevLett.77.3865


 Goedecker, S; Teter, M; Hutter, J. 
 PHYSICAL REVIEW B, 54 (3), 1703-1710 (1996). 
 Separable dual-space Gaussian pseudopotentials.
 http://dx.doi.org/10.1103/PhysRevB.54.1703


 -------------------------------------------------------------------------------
 -                                                                             -
 -                                T I M I N G                                  -
 -                                                                             -
 -------------------------------------------------------------------------------
 SUBROUTINE                       CALLS  ASD         SELF TIME        TOTAL TIME
                                MAXIMUM       AVERAGE  MAXIMUM  AVERAGE  MAXIMUM
 CP2K                                 1  1.0    0.121    0.131   99.634   99.636
 qs_energies                          1  2.0    0.002    0.004   98.951   98.955
 qs_energies_properties               1  3.0    0.000    0.000   61.956   61.959
 maximal_orbital_analysis             1  4.0    3.730    3.794   61.956   61.959
 moax_frg                             4  5.0   47.695   48.873   56.619   56.622
 scf_env_do_scf                       1  3.0    0.000    0.000   31.118   31.242
 scf_env_do_scf_inner_loop            5  4.0    0.001    0.023   31.118   31.242
 qs_rho_update_rho                    6  5.0    0.000    0.000   15.701   15.704
 calculate_rho_elec                  12  6.0   13.873   14.127   15.701   15.704
 qs_ks_update_qs_env                  5  5.0    0.000    0.000   15.231   15.607
 rebuild_ks_matrix                    5  6.0    0.000    0.000   15.228   15.604
 qs_ks_build_kohn_sham_matrix         5  7.0    0.886    1.253   15.228   15.604
 sum_up_and_integrate                 5  8.0    0.003    0.004   12.606   12.624
 integrate_v_rspace                  10  9.0   10.477   10.834   12.603   12.621
 cp_fm_syevd                       1331  6.0    0.003    0.005    7.986    8.059
 cp_fm_redistribute_end            1331  7.0    5.626    6.382    5.886    6.714
 cp_fm_syevd_base                  1331  7.1    0.733    5.134    0.733    5.134
 init_scf_run                         1  3.0    0.000    0.000    3.556    3.556
 scf_env_initial_rho_setup            1  4.0    0.000    0.000    3.426    3.426
 qs_scf_new_mos                       5  5.0    0.000    0.000    2.495    3.170
 rs_pw_transfer                     224  9.3    0.002    0.002    2.433    3.029
 cp_gemm                            127  6.5    0.000    0.000    2.040    2.534
 cp_gemm_fm_gemm                    127  7.5    0.000    0.000    2.040    2.533
 cp_fm_gemm                         127  8.5    2.040    2.533    2.040    2.533
 pw_transfer                        326  9.4    0.015    0.024    2.225    2.330
 fft_wrap_pw1pw2                    316 10.4    0.002    0.002    2.205    2.308
 fft_wrap_pw1pw2_330                118 11.5    0.086    0.112    2.025    2.126
 fft3d_ps                           316 12.4    0.538    0.611    1.970    2.104
 eigensolver                         10  6.0    0.001    0.001    2.005    2.008
 -------------------------------------------------------------------------------

 The number of warnings for this run is : 1
 
 -------------------------------------------------------------------------------
  **** **** ******  **  PROGRAM ENDED AT                 2020-04-22 07:56:28.348
 ***** ** ***  *** **   PROGRAM RAN ON            cpn-u24-14.cbls.ccr.buffalo.ed
 **    ****   ******    PROGRAM RAN BY                                  pavankum
 ***** **    ** ** **   PROGRAM PROCESS ID                                162071
  **** **  *******  **  PROGRAM STOPPED IN /projects/academic/mdupuis2/pavan/MOA
                                           /BVO/gopt_state1
