 DBCSR| Multiplication driver                                               BLAS
 DBCSR| Multrec recursion limit                                              512
 DBCSR| Multiplication stack size                                           1000
 DBCSR| Maximum elements for images                                    UNLIMITED
 DBCSR| Multiplicative factor virtual images                                   1
 DBCSR| Multiplication size stacks                                             3
 DBCSR| Number of 3D layers                                               SINGLE
 DBCSR| Use MPI memory allocation                                              T
 DBCSR| Use RMA algorithm                                                      F
 DBCSR| Use Communication thread                                               T
 DBCSR| Communication thread load                                             87


  **** **** ******  **  PROGRAM STARTED AT               2019-08-09 14:26:44.177
 ***** ** ***  *** **   PROGRAM STARTED ON        cpn-u25-20.cbls.ccr.buffalo.ed
 **    ****   ******    PROGRAM STARTED BY                              pavankum
 ***** **    ** ** **   PROGRAM PROCESS ID                                 11416
  **** **  *******  **  PROGRAM STARTED IN /projects/academic/mdupuis2/pavan/VAB
                                           _calculation/results_for_paper/3.1D_F
                                           e_7units/blyp_plusU5/def_opts/gopt_st
                                           ate1

 CP2K| version string:                                          CP2K version 6.1
 CP2K| source code revision number:                                    svn:18464
 CP2K| cp2kflags: libint fftw3 libxc parallel mpi3 scalapack libderiv_max_am1=5 
 CP2K|            libint_max_am=6
 CP2K| is freely available from                            https://www.cp2k.org/
 CP2K| Program compiled at                          Fri Nov 30 14:17:09 EST 2018
 CP2K| Program compiled on                       srv-p22-12.cbls.ccr.buffalo.edu
 CP2K| Program compiled for                                                local
 CP2K| Data directory path    /projects/academic/mdupuis2/pavan/cp2k/cp2k-6.1/da
 CP2K| Input file name                                                 input.inp

 GLOBAL| Force Environment number                                              1
 GLOBAL| Basis set file name            /projects/academic/mdupuis2/pavan/BASIS_
 GLOBAL| Potential file name            /projects/academic/mdupuis2/pavan/POTENT
 GLOBAL| MM Potential file name                                     MM_POTENTIAL
 GLOBAL| Coordinate file name                                           opt1.xyz
 GLOBAL| Method name                                                        CP2K
 GLOBAL| Project name                                                      p_fe_
 GLOBAL| Preferred FFT library                                             FFTW3
 GLOBAL| Preferred diagonalization lib.                                       SL
 GLOBAL| Run type                                                        GEO_OPT
 GLOBAL| All-to-all communication in single precision                          F
 GLOBAL| FFTs using library dependent lengths                                  T
 GLOBAL| Global print level                                               MEDIUM
 GLOBAL| Total number of message passing processes                            64
 GLOBAL| Number of threads for this process                                    1
 GLOBAL| This output is from process                                           0
 GLOBAL| CPU model name :  Intel(R) Xeon(R) Gold 6130 CPU @ 2.10GHz

 MEMORY| system memory details [Kb]
 MEMORY|                        rank 0           min           max       average
 MEMORY| MemTotal            196307064     196307064     196307064     196307064
 MEMORY| MemFree             186749056     186749056     189611256     188180156
 MEMORY| Buffers                 47056         23724         47056         35390
 MEMORY| Cached                2689792        584156       2689792       1636974
 MEMORY| Slab                   663952        569032        663952        616492
 MEMORY| SReclaimable           300924        205588        300924        253256
 MEMORY| MemLikelyFree       189786828     189786828     190424724     190105776


 *** Fundamental physical constants (SI units) ***

 *** Literature: B. J. Mohr and B. N. Taylor,
 ***             CODATA recommended values of the fundamental physical
 ***             constants: 2006, Web Version 5.1
 ***             http://physics.nist.gov/constants

 Speed of light in vacuum [m/s]                             2.99792458000000E+08
 Magnetic constant or permeability of vacuum [N/A**2]       1.25663706143592E-06
 Electric constant or permittivity of vacuum [F/m]          8.85418781762039E-12
 Planck constant (h) [J*s]                                  6.62606896000000E-34
 Planck constant (h-bar) [J*s]                              1.05457162825177E-34
 Elementary charge [C]                                      1.60217648700000E-19
 Electron mass [kg]                                         9.10938215000000E-31
 Electron g factor [ ]                                     -2.00231930436220E+00
 Proton mass [kg]                                           1.67262163700000E-27
 Fine-structure constant                                    7.29735253760000E-03
 Rydberg constant [1/m]                                     1.09737315685270E+07
 Avogadro constant [1/mol]                                  6.02214179000000E+23
 Boltzmann constant [J/K]                                   1.38065040000000E-23
 Atomic mass unit [kg]                                      1.66053878200000E-27
 Bohr radius [m]                                            5.29177208590000E-11

 *** Conversion factors ***

 [u] -> [a.u.]                                              1.82288848426455E+03
 [Angstrom] -> [Bohr] = [a.u.]                              1.88972613288564E+00
 [a.u.] = [Bohr] -> [Angstrom]                              5.29177208590000E-01
 [a.u.] -> [s]                                              2.41888432650478E-17
 [a.u.] -> [fs]                                             2.41888432650478E-02
 [a.u.] -> [J]                                              4.35974393937059E-18
 [a.u.] -> [N]                                              8.23872205491840E-08
 [a.u.] -> [K]                                              3.15774647902944E+05
 [a.u.] -> [kJ/mol]                                         2.62549961709828E+03
 [a.u.] -> [kcal/mol]                                       6.27509468713739E+02
 [a.u.] -> [Pa]                                             2.94210107994716E+13
 [a.u.] -> [bar]                                            2.94210107994716E+08
 [a.u.] -> [atm]                                            2.90362800883016E+08
 [a.u.] -> [eV]                                             2.72113838565563E+01
 [a.u.] -> [Hz]                                             6.57968392072181E+15
 [a.u.] -> [1/cm] (wave numbers)                            2.19474631370540E+05
 [a.u./Bohr**2] -> [1/cm]                                   5.14048714338585E+03
 

 CELL_TOP| Volume [angstrom^3]:                                        26196.625
 CELL_TOP| Vector a [angstrom    21.385     0.000     0.000    |a| =      21.385
 CELL_TOP| Vector b [angstrom     0.000    35.000     0.000    |b| =      35.000
 CELL_TOP| Vector c [angstrom     0.000     0.000    35.000    |c| =      35.000
 CELL_TOP| Angle (b,c), alpha [degree]:                                   90.000
 CELL_TOP| Angle (a,c), beta  [degree]:                                   90.000
 CELL_TOP| Angle (a,b), gamma [degree]:                                   90.000
 CELL_TOP| Numerically orthorhombic:                                         YES

 CELL| Volume [angstrom^3]:                                            26196.625
 CELL| Vector a [angstrom]:      21.385     0.000     0.000    |a| =      21.385
 CELL| Vector b [angstrom]:       0.000    35.000     0.000    |b| =      35.000
 CELL| Vector c [angstrom]:       0.000     0.000    35.000    |c| =      35.000
 CELL| Angle (b,c), alpha [degree]:                                       90.000
 CELL| Angle (a,c), beta  [degree]:                                       90.000
 CELL| Angle (a,b), gamma [degree]:                                       90.000
 CELL| Numerically orthorhombic:                                             YES

 CELL_REF| Volume [angstrom^3]:                                        26196.625
 CELL_REF| Vector a [angstrom    21.385     0.000     0.000    |a| =      21.385
 CELL_REF| Vector b [angstrom     0.000    35.000     0.000    |b| =      35.000
 CELL_REF| Vector c [angstrom     0.000     0.000    35.000    |c| =      35.000
 CELL_REF| Angle (b,c), alpha [degree]:                                   90.000
 CELL_REF| Angle (a,c), beta  [degree]:                                   90.000
 CELL_REF| Angle (a,b), gamma [degree]:                                   90.000
 CELL_REF| Numerically orthorhombic:                                         YES

 *******************************************************************************
 *******************************************************************************
 **                                                                           **
 **     #####                         ##              ##                      **
 **    ##   ##            ##          ##              ##                      **
 **   ##     ##                       ##            ######                    **
 **   ##     ##  ##   ##  ##   #####  ##  ##   ####   ##    #####    #####    **
 **   ##     ##  ##   ##  ##  ##      ## ##   ##      ##   ##   ##  ##   ##   **
 **   ##  ## ##  ##   ##  ##  ##      ####     ###    ##   ######   ######    **
 **    ##  ###   ##   ##  ##  ##      ## ##      ##   ##   ##       ##        **
 **     #######   #####   ##   #####  ##  ##  ####    ##    #####   ##        **
 **           ##                                                    ##        **
 **                                                                           **
 **                                                ... make the atoms dance   **
 **                                                                           **
 **            Copyright (C) by CP2K developers group (2000 - 2018)           **
 **                                                                           **
 *******************************************************************************

 DFT| Spin unrestricted (spin-polarized) Kohn-Sham calculation               UKS
 DFT| Multiplicity                                                            35
 DFT| Number of spin states                                                    2
 DFT| Charge                                                                   6
 DFT| Self-interaction correction (SIC)                                       NO
 DFT| Cutoffs: density                                              1.000000E-10
 DFT|          gradient                                             1.000000E-10
 DFT|          tau                                                  1.000000E-10
 DFT|          cutoff_smoothing_range                               0.000000E+00
 DFT| XC density smoothing                                                  NONE
 DFT| XC derivatives                                                          PW

 DFT+U| Method                                                          MULLIKEN
 DFT+U| Check atomic kind information for details
 FUNCTIONAL| ROUTINE=NEW
 FUNCTIONAL| BECKE88:
 FUNCTIONAL| A. Becke, Phys. Rev. A 38, 3098 (1988) {LSD version}               
 FUNCTIONAL| LYP:
 FUNCTIONAL| C. Lee, W. Yang, R.G. Parr, Phys. Rev. B, 37, 785 (1988) {LSD versi
 FUNCTIONAL| on}                                                                

 QS| Method:                                                                 GPW
 QS| Density plane wave grid type                        NON-SPHERICAL FULLSPACE
 QS| Number of grid levels:                                                   10
 QS| Density cutoff [a.u.]:                                                325.0
 QS| Multi grid cutoff [a.u.]: 1) grid level                               325.0
 QS|                           2) grid level                               108.3
 QS|                           3) grid level                                36.1
 QS|                           4) grid level                                12.0
 QS|                           5) grid level                                 4.0
 QS|                           6) grid level                                 1.3
 QS|                           7) grid level                                 0.4
 QS|                           8) grid level                                 0.1
 QS|                           9) grid level                                 0.0
 QS|                          10) grid level                                 0.0
 QS| Grid level progression factor:                                          3.0
 QS| Relative density cutoff [a.u.]:                                        30.0
 QS| Consistent realspace mapping and integration 
 QS| Interaction thresholds: eps_pgf_orb:                                1.0E-10
 QS|                         eps_filter_matrix:                          0.0E+00
 QS|                         eps_core_charge:                            1.0E-14
 QS|                         eps_rho_gspace:                             1.0E-12
 QS|                         eps_rho_rspace:                             1.0E-12
 QS|                         eps_gvg_rspace:                             1.0E-06
 QS|                         eps_ppl:                                    1.0E-02
 QS|                         eps_ppnl:                                   1.0E-08


 ATOMIC KIND INFORMATION

  1. Atomic kind: Fe                                    Number of atoms:       7

     Orbital Basis Set                                                   mod-DZV

       Number of orbital shell sets:                                           1
       Number of orbital shells:                                               7
       Number of primitive Cartesian functions:                                6
       Number of Cartesian basis functions:                                   21
       Number of spherical basis functions:                                   19
       Norm type:                                                              2

       Normalised Cartesian orbitals:

                        Set   Shell   Orbital            Exponent    Coefficient

                          1       1    2s                8.424366      -0.545589
                                                         4.825220      -0.832336
                                                         2.198939       0.958990
                                                         0.891661       0.416271
                                                         0.316231       0.012631
                                                         0.103474      -0.013505

                          1       2    3s                8.424366      -0.106056
                                                         4.825220      -0.104587
                                                         2.198939       0.052318
                                                         0.891661      -0.169042
                                                         0.316231       0.061854
                                                         0.103474       0.122891

                          1       3    4s                8.424366      -0.333477
                                                         4.825220      -0.289267
                                                         2.198939      -0.125861
                                                         0.891661      -1.004000
                                                         0.316231       0.780774
                                                         0.103474      -0.187846

                          1       4    3px               8.424366      -1.658234
                                                         4.825220       1.618912
                                                         2.198939       1.969078
                                                         0.891661       0.523780
                                                         0.316231       0.024574
                                                         0.103474      -0.000798
                          1       4    3py               8.424366      -1.658234
                                                         4.825220       1.618912
                                                         2.198939       1.969078
                                                         0.891661       0.523780
                                                         0.316231       0.024574
                                                         0.103474      -0.000798
                          1       4    3pz               8.424366      -1.658234
                                                         4.825220       1.618912
                                                         2.198939       1.969078
                                                         0.891661       0.523780
                                                         0.316231       0.024574
                                                         0.103474      -0.000798

                          1       5    4px               8.424366      -0.105249
                                                         4.825220      -0.126123
                                                         2.198939      -0.349657
                                                         0.891661      -0.133470
                                                         0.316231       0.170554
                                                         0.103474       0.054381
                          1       5    4py               8.424366      -0.105249
                                                         4.825220      -0.126123
                                                         2.198939      -0.349657
                                                         0.891661      -0.133470
                                                         0.316231       0.170554
                                                         0.103474       0.054381
                          1       5    4pz               8.424366      -0.105249
                                                         4.825220      -0.126123
                                                         2.198939      -0.349657
                                                         0.891661      -0.133470
                                                         0.316231       0.170554
                                                         0.103474       0.054381

                          1       6    4dx2              8.424366       7.918298
                                                         4.825220       5.112663
                                                         2.198939       2.118663
                                                         0.891661       0.465004
                                                         0.316231       0.065856
                                                         0.103474       0.002769
                          1       6    4dxy              8.424366      13.714895
                                                         4.825220       8.855393
                                                         2.198939       3.669632
                                                         0.891661       0.805411
                                                         0.316231       0.114066
                                                         0.103474       0.004796
                          1       6    4dxz              8.424366      13.714895
                                                         4.825220       8.855393
                                                         2.198939       3.669632
                                                         0.891661       0.805411
                                                         0.316231       0.114066
                                                         0.103474       0.004796
                          1       6    4dy2              8.424366       7.918298
                                                         4.825220       5.112663
                                                         2.198939       2.118663
                                                         0.891661       0.465004
                                                         0.316231       0.065856
                                                         0.103474       0.002769
                          1       6    4dyz              8.424366      13.714895
                                                         4.825220       8.855393
                                                         2.198939       3.669632
                                                         0.891661       0.805411
                                                         0.316231       0.114066
                                                         0.103474       0.004796
                          1       6    4dz2              8.424366       7.918298
                                                         4.825220       5.112663
                                                         2.198939       2.118663
                                                         0.891661       0.465004
                                                         0.316231       0.065856
                                                         0.103474       0.002769

                          1       7    5dx2              8.424366      -4.223614
                                                         4.825220      -1.970584
                                                         2.198939      -1.543490
                                                         0.891661      -0.041381
                                                         0.316231       0.082821
                                                         0.103474       0.021964
                          1       7    5dxy              8.424366      -7.315513
                                                         4.825220      -3.413151
                                                         2.198939      -2.673404
                                                         0.891661      -0.071673
                                                         0.316231       0.143450
                                                         0.103474       0.038042
                          1       7    5dxz              8.424366      -7.315513
                                                         4.825220      -3.413151
                                                         2.198939      -2.673404
                                                         0.891661      -0.071673
                                                         0.316231       0.143450
                                                         0.103474       0.038042
                          1       7    5dy2              8.424366      -4.223614
                                                         4.825220      -1.970584
                                                         2.198939      -1.543490
                                                         0.891661      -0.041381
                                                         0.316231       0.082821
                                                         0.103474       0.021964
                          1       7    5dyz              8.424366      -7.315513
                                                         4.825220      -3.413151
                                                         2.198939      -2.673404
                                                         0.891661      -0.071673
                                                         0.316231       0.143450
                                                         0.103474       0.038042
                          1       7    5dz2              8.424366      -4.223614
                                                         4.825220      -1.970584
                                                         2.198939      -1.543490
                                                         0.891661      -0.041381
                                                         0.316231       0.082821
                                                         0.103474       0.021964

     GTH Potential information for                                  GTH-BLYP-q16

       Description:                       Goedecker-Teter-Hutter pseudopotential
                                           Goedecker et al., PRB 54, 1703 (1996)
                                          Hartwigsen et al., PRB 58, 3641 (1998)
                                                      Krack, TCA 114, 145 (2005)

       Gaussian exponent of the core charge distribution:               3.858025
       Electronic configuration (s p d ...):                           4   6   6

       Parameters of the local part of the GTH pseudopotential:

                          rloc        C1          C2          C3          C4
                        0.360000    7.011025   -0.222747

       Parameters of the non-local part of the GTH pseudopotential:

                   l      r(l)      h(i,j,l)

                   0    0.276205    0.611496    7.992357
                                    7.992357  -10.318089
                   1    0.247130   -8.710556    8.684169
                                    8.684169  -10.275248
                   2    0.223534  -12.411504

     A DFT+U correction is applied to atoms of this atomic kind:
       Angular quantum momentum number L:                                      2
       U(eff) = (U - J) value in [eV]:                                     5.000

  2. Atomic kind: O                                     Number of atoms:      28

     Orbital Basis Set                                                   mod-DZV

       Number of orbital shell sets:                                           1
       Number of orbital shells:                                               4
       Number of primitive Cartesian functions:                                5
       Number of Cartesian basis functions:                                    8
       Number of spherical basis functions:                                    8
       Norm type:                                                              2

       Normalised Cartesian orbitals:

                        Set   Shell   Orbital            Exponent    Coefficient

                          1       1    2s               10.389228       0.396646
                                                         3.849621       0.208811
                                                         1.388401      -0.301641
                                                         0.496955      -0.274061
                                                         0.162492      -0.033677

                          1       2    3s               10.389228       0.303673
                                                         3.849621       0.240943
                                                         1.388401      -0.313066
                                                         0.496955      -0.043055
                                                         0.162492       0.213991

                          1       3    3px              10.389228      -1.530415
                                                         3.849621      -1.371928
                                                         1.388401      -0.761951
                                                         0.496955      -0.253695
                                                         0.162492      -0.035541
                          1       3    3py              10.389228      -1.530415
                                                         3.849621      -1.371928
                                                         1.388401      -0.761951
                                                         0.496955      -0.253695
                                                         0.162492      -0.035541
                          1       3    3pz              10.389228      -1.530415
                                                         3.849621      -1.371928
                                                         1.388401      -0.761951
                                                         0.496955      -0.253695
                                                         0.162492      -0.035541

                          1       4    4px              10.389228      -0.565392
                                                         3.849621      -0.038231
                                                         1.388401      -0.382373
                                                         0.496955       0.179070
                                                         0.162492       0.122714
                          1       4    4py              10.389228      -0.565392
                                                         3.849621      -0.038231
                                                         1.388401      -0.382373
                                                         0.496955       0.179070
                                                         0.162492       0.122714
                          1       4    4pz              10.389228      -0.565392
                                                         3.849621      -0.038231
                                                         1.388401      -0.382373
                                                         0.496955       0.179070
                                                         0.162492       0.122714

     GTH Potential information for                                   GTH-BLYP-q6

       Description:                       Goedecker-Teter-Hutter pseudopotential
                                           Goedecker et al., PRB 54, 1703 (1996)
                                          Hartwigsen et al., PRB 58, 3641 (1998)
                                                      Krack, TCA 114, 145 (2005)

       Gaussian exponent of the core charge distribution:               8.438331
       Electronic configuration (s p d ...):                               2   4

       Parameters of the local part of the GTH pseudopotential:

                          rloc        C1          C2          C3          C4
                        0.243420  -16.991892    2.566142

       Parameters of the non-local part of the GTH pseudopotential:

                   l      r(l)      h(i,j,l)

                   0    0.220831   18.388851
                   1    0.217201

  3. Atomic kind: H                                     Number of atoms:      42

     Orbital Basis Set                                                   mod-DZV

       Number of orbital shell sets:                                           1
       Number of orbital shells:                                               2
       Number of primitive Cartesian functions:                                5
       Number of Cartesian basis functions:                                    2
       Number of spherical basis functions:                                    2
       Norm type:                                                              2

       Normalised Cartesian orbitals:

                        Set   Shell   Orbital            Exponent    Coefficient

                          1       1    2s               10.068468      -0.133023
                                                         2.680223      -0.177618
                                                         0.791502      -0.258419
                                                         0.239116      -0.107525
                                                         0.082193      -0.014019

                          1       2    3s               10.068468       0.344673
                                                         2.680223       1.819821
                                                         0.791502      -0.999069
                                                         0.239116       0.017430
                                                         0.082193       0.082660

     GTH Potential information for                                   GTH-BLYP-q1

       Description:                       Goedecker-Teter-Hutter pseudopotential
                                           Goedecker et al., PRB 54, 1703 (1996)
                                          Hartwigsen et al., PRB 58, 3641 (1998)
                                                      Krack, TCA 114, 145 (2005)

       Gaussian exponent of the core charge distribution:              12.500000
       Electronic configuration (s p d ...):                                   1

       Parameters of the local part of the GTH pseudopotential:

                          rloc        C1          C2          C3          C4
                        0.200000   -4.195961    0.730498


 MOLECULE KIND INFORMATION


 All atoms are their own molecule, skipping detailed information


 TOTAL NUMBERS AND MAXIMUM NUMBERS

  Total number of            - Atomic kinds:                                   3
                             - Atoms:                                         77
                             - Shell sets:                                    77
                             - Shells:                                       245
                             - Primitive Cartesian functions:                392
                             - Cartesian basis functions:                    455
                             - Spherical basis functions:                    441

  Maximum angular momentum of- Orbital basis functions:                        2
                             - Local part of the GTH pseudopotential:          2
                             - Non-local part of the GTH pseudopotential:      3


 MODULE QUICKSTEP:  ATOMIC COORDINATES IN angstrom

  Atom  Kind  Element       X           Y           Z          Z(eff)       Mass

       1     1 Fe  26   18.338841   -0.000009   -0.000002     16.00      55.8450
       2     1 Fe  26   15.267897   -0.000395   -0.000053     16.00      55.8450
       3     1 Fe  26   12.183374   -0.000071   -0.000480     16.00      55.8450
       4     1 Fe  26    9.169577    0.022774    0.000066     16.00      55.8450
       5     1 Fe  26    6.156239    0.000604    0.000005     16.00      55.8450
       6     1 Fe  26    3.071874   -0.000406   -0.000406     16.00      55.8450
       7     1 Fe  26    0.000866   -0.000028   -0.000011     16.00      55.8450
       8     2 O    8   18.339482   -0.033241    2.114066      6.00      15.9994
       9     2 O    8   18.338558    0.033220   -2.113952      6.00      15.9994
      10     2 O    8   19.860949   -1.262374   -0.026839      6.00      15.9994
      11     2 O    8   19.860985    1.262270    0.026773      6.00      15.9994
      12     2 O    8   15.321181   -0.028747    2.157418      6.00      15.9994
      13     2 O    8   15.320995    0.028585   -2.157188      6.00      15.9994
      14     2 O    8   16.817724   -1.257718   -0.027077      6.00      15.9994
      15     2 O    8   16.818036    1.257261    0.027343      6.00      15.9994
      16     2 O    8   12.283340    0.032575    2.170880      6.00      15.9994
      17     2 O    8   12.282942   -0.033150   -2.170740      6.00      15.9994
      18     2 O    8   13.783075   -1.256575    0.020655      6.00      15.9994
      19     2 O    8   13.786936    1.256628   -0.021599      6.00      15.9994
      20     2 O    8    9.170659    0.037556    2.229525      6.00      15.9994
      21     2 O    8    9.170641    0.027226   -2.231159      6.00      15.9994
      22     2 O    8   10.797415   -1.300365    0.029286      6.00      15.9994
      23     2 O    8   10.820724    1.323819   -0.028715      6.00      15.9994
      24     2 O    8    6.057034    0.032587    2.170060      6.00      15.9994
      25     2 O    8    6.057610   -0.033156   -2.170206      6.00      15.9994
      26     2 O    8    7.542037   -1.300294    0.029267      6.00      15.9994
      27     2 O    8    7.519545    1.323940   -0.028731      6.00      15.9994
      28     2 O    8    3.016680   -0.028954    2.154511      6.00      15.9994
      29     2 O    8    3.016841    0.028549   -2.155225      6.00      15.9994
      30     2 O    8    4.556087   -1.256655    0.020287      6.00      15.9994
      31     2 O    8    4.552204    1.256577   -0.021718      6.00      15.9994
      32     2 O    8   -0.020125   -0.033411    2.114678      6.00      15.9994
      33     2 O    8   -0.020106    0.033359   -2.114714      6.00      15.9994
      34     2 O    8    1.519789   -1.257321   -0.027378      6.00      15.9994
      35     2 O    8    1.519562    1.256796    0.027228      6.00      15.9994
      36     3 H    1   18.254096   -0.774105   -2.682801      1.00       1.0079
      37     3 H    1   18.222453    0.851255   -2.661846      1.00       1.0079
      38     3 H    1   18.226359   -0.851346    2.662460      1.00       1.0079
      39     3 H    1   18.251281    0.774115    2.682232      1.00       1.0079
      40     3 H    1   19.860732   -2.251284   -0.030686      1.00       1.0079
      41     3 H    1   19.860760    2.251176    0.030372      1.00       1.0079
      42     3 H    1   15.164816   -0.783796   -2.705833      1.00       1.0079
      43     3 H    1   15.047940    0.833811   -2.668484      1.00       1.0079
      44     3 H    1   15.058341   -0.835905    2.671118      1.00       1.0079
      45     3 H    1   15.157014    0.782962    2.704601      1.00       1.0079
      46     3 H    1   16.807571   -2.246605   -0.027066      1.00       1.0079
      47     3 H    1   16.807254    2.246143    0.026963      1.00       1.0079
      48     3 H    1   12.110014   -0.858554   -2.694068      1.00       1.0079
      49     3 H    1   12.038133    0.766268   -2.704275      1.00       1.0079
      50     3 H    1   12.053315   -0.768653    2.708226      1.00       1.0079
      51     3 H    1   12.097495    0.856943    2.690753      1.00       1.0079
      52     3 H    1   13.757235   -2.244421    0.016886      1.00       1.0079
      53     3 H    1   13.760603    2.244353   -0.016193      1.00       1.0079
      54     3 H    1    9.168196   -0.781251   -2.804989      1.00       1.0079
      55     3 H    1    9.168365    0.846461   -2.790027      1.00       1.0079
      56     3 H    1    9.168148   -0.778165    2.793127      1.00       1.0079
      57     3 H    1    9.167882    0.849971    2.798445      1.00       1.0079
      58     3 H    1   10.780119   -2.287070    0.033003      1.00       1.0079
      59     3 H    1   10.817765    2.311103   -0.034440      1.00       1.0079
      60     3 H    1    6.225053   -0.858484   -2.695016      1.00       1.0079
      61     3 H    1    6.296901    0.766580   -2.705389      1.00       1.0079
      62     3 H    1    6.281169   -0.769018    2.709345      1.00       1.0079
      63     3 H    1    6.236844    0.857055    2.691955      1.00       1.0079
      64     3 H    1    7.558884   -2.287118    0.032930      1.00       1.0079
      65     3 H    1    7.521739    2.310715   -0.034374      1.00       1.0079
      66     3 H    1    3.161113   -0.783530   -2.707307      1.00       1.0079
      67     3 H    1    3.277574    0.834804   -2.671040      1.00       1.0079
      68     3 H    1    3.267282   -0.836991    2.672599      1.00       1.0079
      69     3 H    1    3.168348    0.782629    2.705255      1.00       1.0079
      70     3 H    1    4.581857   -2.244627    0.016267      1.00       1.0079
      71     3 H    1    4.578284    2.244501   -0.017242      1.00       1.0079
      72     3 H    1    0.044119   -0.774281   -2.685607      1.00       1.0079
      73     3 H    1    0.077381    0.851399   -2.666094      1.00       1.0079
      74     3 H    1    0.074564   -0.851422    2.666617      1.00       1.0079
      75     3 H    1    0.045519    0.774377    2.685169      1.00       1.0079
      76     3 H    1    1.529492   -2.245943   -0.027649      1.00       1.0079
      77     3 H    1    1.529917    2.245474    0.027102      1.00       1.0079




 SCF PARAMETERS         Density guess:                                   RESTART
                        --------------------------------------------------------
                        max_scf:                                            1000
                        max_scf_history:                                       0
                        max_diis:                                              4
                        --------------------------------------------------------
                        eps_scf:                                        1.00E-06
                        eps_scf_history:                                0.00E+00
                        eps_diis:                                       1.00E-01
                        eps_eigval:                                     1.00E-05
                        --------------------------------------------------------
                        level_shift [a.u.]:                                 0.00
                        --------------------------------------------------------
                        Outer loop SCF in use 
                        No variables optimised in outer loop
                        eps_scf                                         1.00E-06
                        max_scf                                              500
                        No outer loop optimization
                        step_size                                       5.00E-01

 PW_GRID| Information for grid number                                          1
 PW_GRID| Grid distributed over                                    64 processors
 PW_GRID| Real space group dimensions                                    64    1
 PW_GRID| the grid is blocked:                                                NO
 PW_GRID| Cutoff [a.u.]                                                    325.0
 PW_GRID| spherical cutoff:                                                   NO
 PW_GRID|   Bounds   1           -165     164                Points:         330
 PW_GRID|   Bounds   2           -270     269                Points:         540
 PW_GRID|   Bounds   3           -270     269                Points:         540
 PW_GRID| Volume element (a.u.^3)  0.1837E-02     Volume (a.u.^3)    176783.5904
 PW_GRID| Grid span                                                    FULLSPACE
 PW_GRID|   Distribution                         Average         Max         Min
 PW_GRID|   G-Vectors                          1503562.5     1503810     1503480
 PW_GRID|   G-Rays                                4556.2        4557        4556
 PW_GRID|   Real Space Points                  1503562.5     1749600     1458000

 PW_GRID| Information for grid number                                          2
 PW_GRID| Grid distributed over                                    64 processors
 PW_GRID| Real space group dimensions                                    64    1
 PW_GRID| the grid is blocked:                                                NO
 PW_GRID| Cutoff [a.u.]                                                    108.3
 PW_GRID| spherical cutoff:                                                   NO
 PW_GRID|   Bounds   1            -94      94                Points:         189
 PW_GRID|   Bounds   2           -157     157                Points:         315
 PW_GRID|   Bounds   3           -157     157                Points:         315
 PW_GRID| Volume element (a.u.^3)  0.9427E-02     Volume (a.u.^3)    176783.5904
 PW_GRID| Grid span                                                    FULLSPACE
 PW_GRID|   Distribution                         Average         Max         Min
 PW_GRID|   G-Vectors                           293023.8      293895      292194
 PW_GRID|   G-Rays                                1550.4        1555        1546
 PW_GRID|   Real Space Points                   293023.8      297675      198450

 PW_GRID| Information for grid number                                          3
 PW_GRID| Grid distributed over                                    64 processors
 PW_GRID| Real space group dimensions                                    64    1
 PW_GRID| the grid is blocked:                                                NO
 PW_GRID| Cutoff [a.u.]                                                     36.1
 PW_GRID| spherical cutoff:                                                   NO
 PW_GRID|   Bounds   1            -55      54                Points:         110
 PW_GRID|   Bounds   2            -90      89                Points:         180
 PW_GRID|   Bounds   3            -90      89                Points:         180
 PW_GRID| Volume element (a.u.^3)  0.4960E-01     Volume (a.u.^3)    176783.5904
 PW_GRID| Grid span                                                    FULLSPACE
 PW_GRID|   Distribution                         Average         Max         Min
 PW_GRID|   G-Vectors                            55687.5       55880       55440
 PW_GRID|   G-Rays                                 506.2         508         504
 PW_GRID|   Real Space Points                    55687.5       64800       32400

 PW_GRID| Information for grid number                                          4
 PW_GRID| Grid distributed over                                    64 processors
 PW_GRID| Real space group dimensions                                     8    8
 PW_GRID| the grid is blocked:                                                NO
 PW_GRID| Cutoff [a.u.]                                                     12.0
 PW_GRID| spherical cutoff:                                                   NO
 PW_GRID|   Bounds   1            -31      31                Points:          63
 PW_GRID|   Bounds   2            -52      52                Points:         105
 PW_GRID|   Bounds   3            -52      52                Points:         105
 PW_GRID| Volume element (a.u.^3)  0.2545         Volume (a.u.^3)    176783.5904
 PW_GRID| Grid span                                                    FULLSPACE
 PW_GRID|   Distribution                         Average         Max         Min
 PW_GRID|   G-Vectors                            10852.7       10899       10773
 PW_GRID|   G-Rays                                 172.3         173         171
 PW_GRID|   Real Space Points                    10852.7       11760        9555

 PW_GRID| Information for grid number                                          5
 PW_GRID| Grid distributed over                                    64 processors
 PW_GRID| Real space group dimensions                                     8    8
 PW_GRID| the grid is blocked:                                                NO
 PW_GRID| Cutoff [a.u.]                                                      4.0
 PW_GRID| spherical cutoff:                                                   NO
 PW_GRID|   Bounds   1            -20      19                Points:          40
 PW_GRID|   Bounds   2            -30      29                Points:          60
 PW_GRID|   Bounds   3            -30      29                Points:          60
 PW_GRID| Volume element (a.u.^3)   1.228         Volume (a.u.^3)    176783.5904
 PW_GRID| Grid span                                                    FULLSPACE
 PW_GRID|   Distribution                         Average         Max         Min
 PW_GRID|   G-Vectors                             2250.0        2360        2160
 PW_GRID|   G-Rays                                  56.2          59          54
 PW_GRID|   Real Space Points                     2250.0        2400        2100

 PW_GRID| Information for grid number                                          6
 PW_GRID| Grid distributed over                                    64 processors
 PW_GRID| Real space group dimensions                                     8    8
 PW_GRID| the grid is blocked:                                                NO
 PW_GRID| Cutoff [a.u.]                                                      1.3
 PW_GRID| spherical cutoff:                                                   NO
 PW_GRID|   Bounds   1            -10      10                Points:          21
 PW_GRID|   Bounds   2            -17      17                Points:          35
 PW_GRID|   Bounds   3            -17      17                Points:          35
 PW_GRID| Volume element (a.u.^3)   6.872         Volume (a.u.^3)    176783.5904
 PW_GRID| Grid span                                                    FULLSPACE
 PW_GRID|   Distribution                         Average         Max         Min
 PW_GRID|   G-Vectors                              402.0         462         357
 PW_GRID|   G-Rays                                  19.1          22          17
 PW_GRID|   Real Space Points                      402.0         525         280

 PW_GRID| Information for grid number                                          7
 PW_GRID| Grid distributed over                                    64 processors
 PW_GRID| Real space group dimensions                                     8    8
 PW_GRID| the grid is blocked:                                                NO
 PW_GRID| Cutoff [a.u.]                                                      0.4
 PW_GRID| spherical cutoff:                                                   NO
 PW_GRID|   Bounds   1             -7       6                Points:          14
 PW_GRID|   Bounds   2            -10       9                Points:          20
 PW_GRID|   Bounds   3            -10       9                Points:          20
 PW_GRID| Volume element (a.u.^3)   31.57         Volume (a.u.^3)    176783.5904
 PW_GRID| Grid span                                                    FULLSPACE
 PW_GRID|   Distribution                         Average         Max         Min
 PW_GRID|   G-Vectors                               87.5          98          70
 PW_GRID|   G-Rays                                   6.2           7           5
 PW_GRID|   Real Space Points                       87.5         120          40

 PW_GRID| Information for grid number                                          8
 PW_GRID| Grid distributed over                                    64 processors
 PW_GRID| Real space group dimensions                                     8    8
 PW_GRID| the grid is blocked:                                                NO
 PW_GRID| Cutoff [a.u.]                                                      0.1
 PW_GRID| spherical cutoff:                                                   NO
 PW_GRID|   Bounds   1             -3       3                Points:           7
 PW_GRID|   Bounds   2             -5       5                Points:          11
 PW_GRID|   Bounds   3             -5       5                Points:          11
 PW_GRID| Volume element (a.u.^3)   208.7         Volume (a.u.^3)    176783.5904
 PW_GRID| Grid span                                                    FULLSPACE
 PW_GRID|   Distribution                         Average         Max         Min
 PW_GRID|   G-Vectors                               13.2          21           7
 PW_GRID|   G-Rays                                   1.9           3           1
 PW_GRID|   Real Space Points                       13.2          22           0

 PW_GRID| Information for grid number                                          9
 PW_GRID| Grid distributed over                                    64 processors
 PW_GRID| Real space group dimensions                                     8    8
 PW_GRID| the grid is blocked:                                                NO
 PW_GRID| Cutoff [a.u.]                                                      0.0
 PW_GRID| spherical cutoff:                                                   NO
 PW_GRID|   Bounds   1             -2       2                Points:           5
 PW_GRID|   Bounds   2             -3       3                Points:           7
 PW_GRID|   Bounds   3             -3       3                Points:           7
 PW_GRID| Volume element (a.u.^3)   721.6         Volume (a.u.^3)    176783.5904
 PW_GRID| Grid span                                                    FULLSPACE
 PW_GRID|   Distribution                         Average         Max         Min
 PW_GRID|   G-Vectors                                3.8          10           0
 PW_GRID|   G-Rays                                   0.8           2           0
 PW_GRID|   Real Space Points                        3.8           7           0

 PW_GRID| Information for grid number                                         10
 PW_GRID| Grid distributed over                                    64 processors
 PW_GRID| Real space group dimensions                                     8    8
 PW_GRID| the grid is blocked:                                                NO
 PW_GRID| Cutoff [a.u.]                                                      0.0
 PW_GRID| spherical cutoff:                                                   NO
 PW_GRID|   Bounds   1             -1       1                Points:           3
 PW_GRID|   Bounds   2             -1       1                Points:           3
 PW_GRID|   Bounds   3             -1       1                Points:           3
 PW_GRID| Volume element (a.u.^3)   6548.         Volume (a.u.^3)    176783.5904
 PW_GRID| Grid span                                                    FULLSPACE
 PW_GRID|   Distribution                         Average         Max         Min
 PW_GRID|   G-Vectors                                0.4           3           0
 PW_GRID|   G-Rays                                   0.1           1           0
 PW_GRID|   Real Space Points                        0.4           3           0

 POISSON| Solver                                                        PERIODIC
 POISSON| Periodicity                                                        XYZ

 RS_GRID| Information for grid number                                          1
 RS_GRID|   Bounds   1           -165     164                Points:         330
 RS_GRID|   Bounds   2           -270     269                Points:         540
 RS_GRID|   Bounds   3           -270     269                Points:         540
 RS_GRID| Real space distribution over                                  8 groups
 RS_GRID| Real space distribution along direction                              2
 RS_GRID| Border size                                                         25
 RS_GRID| Real space distribution over                                  8 groups
 RS_GRID| Real space distribution along direction                              3
 RS_GRID| Border size                                                         25
 RS_GRID|   Distribution                         Average         Max         Min
 RS_GRID|   Planes                                 117.5         118         117
 RS_GRID|   Distribution                         Average         Max         Min
 RS_GRID|   Planes                                 117.5         118         117

 RS_GRID| Information for grid number                                          2
 RS_GRID|   Bounds   1            -94      94                Points:         189
 RS_GRID|   Bounds   2           -157     157                Points:         315
 RS_GRID|   Bounds   3           -157     157                Points:         315
 RS_GRID| Real space distribution over                                  8 groups
 RS_GRID| Real space distribution along direction                              2
 RS_GRID| Border size                                                         28
 RS_GRID| Real space distribution over                                  8 groups
 RS_GRID| Real space distribution along direction                              3
 RS_GRID| Border size                                                         28
 RS_GRID|   Distribution                         Average         Max         Min
 RS_GRID|   Planes                                  95.4          96          95
 RS_GRID|   Distribution                         Average         Max         Min
 RS_GRID|   Planes                                  95.4          96          95

 RS_GRID| Information for grid number                                          3
 RS_GRID|   Bounds   1            -55      54                Points:         110
 RS_GRID|   Bounds   2            -90      89                Points:         180
 RS_GRID|   Bounds   3            -90      89                Points:         180
 RS_GRID| Real space fully replicated
 RS_GRID| Group size                                                           1

 RS_GRID| Information for grid number                                          4
 RS_GRID|   Bounds   1            -31      31                Points:          63
 RS_GRID|   Bounds   2            -52      52                Points:         105
 RS_GRID|   Bounds   3            -52      52                Points:         105
 RS_GRID| Real space fully replicated
 RS_GRID| Group size                                                           1

 RS_GRID| Information for grid number                                          5
 RS_GRID|   Bounds   1            -20      19                Points:          40
 RS_GRID|   Bounds   2            -30      29                Points:          60
 RS_GRID|   Bounds   3            -30      29                Points:          60
 RS_GRID| Real space fully replicated
 RS_GRID| Group size                                                           1

 RS_GRID| Information for grid number                                          6
 RS_GRID|   Bounds   1            -10      10                Points:          21
 RS_GRID|   Bounds   2            -17      17                Points:          35
 RS_GRID|   Bounds   3            -17      17                Points:          35
 RS_GRID| Real space fully replicated
 RS_GRID| Group size                                                           1

 RS_GRID| Information for grid number                                          7
 RS_GRID|   Bounds   1             -7       6                Points:          14
 RS_GRID|   Bounds   2            -10       9                Points:          20
 RS_GRID|   Bounds   3            -10       9                Points:          20
 RS_GRID| Real space fully replicated
 RS_GRID| Group size                                                           1

 RS_GRID| Information for grid number                                          8
 RS_GRID|   Bounds   1             -3       3                Points:           7
 RS_GRID|   Bounds   2             -5       5                Points:          11
 RS_GRID|   Bounds   3             -5       5                Points:          11
 RS_GRID| Real space fully replicated
 RS_GRID| Group size                                                           1

 RS_GRID| Information for grid number                                          9
 RS_GRID|   Bounds   1             -2       2                Points:           5
 RS_GRID|   Bounds   2             -3       3                Points:           7
 RS_GRID|   Bounds   3             -3       3                Points:           7
 RS_GRID| Real space fully replicated
 RS_GRID| Group size                                                           1

 RS_GRID| Information for grid number                                         10
 RS_GRID|   Bounds   1             -1       1                Points:           3
 RS_GRID|   Bounds   2             -1       1                Points:           3
 RS_GRID|   Bounds   3             -1       1                Points:           3
 RS_GRID| Real space fully replicated
 RS_GRID| Group size                                                           1

 *******************************************************************************
 ***                     STARTING GEOMETRY OPTIMIZATION                      ***
 ***                           CONJUGATE GRADIENTS                           ***
 *******************************************************************************

 Spin 1

 Number of electrons:                                                        175
 Number of occupied orbitals:                                                175
 Number of molecular orbitals:                                               175

 Spin 2

 Number of electrons:                                                        141
 Number of occupied orbitals:                                                141
 Number of molecular orbitals:                                               141

 Number of orbital functions:                                                441
 Number of independent orbital functions:                                    441

 Extrapolation method: initial_guess


 SCF WAVEFUNCTION OPTIMIZATION

  ----------------------------------- OT ---------------------------------------
  Minimizer      : CG                  : conjugate gradient
  Preconditioner : FULL_KINETIC        : inversion of T + eS
  Precond_solver : DEFAULT
  Line search    : 2PNT                : 2 energies, one gradient
  stepsize       :    0.15000000                  energy_gap     :    0.20000000
  eps_taylor     :   0.10000E-15                  max_taylor     :             4
  ----------------------------------- OT ---------------------------------------

  Step     Update method      Time    Convergence         Total energy    Change
  ------------------------------------------------------------------------------

 *** WARNING in dft_plus_u.F:1457 :: DFT+U energy contibution is negative ***
 *** possibly due to unphysical Mulliken charges. Check your input, if    ***
 *** this warning persists or try a different method!                     ***

     1 OT CG       0.15E+00    6.3     0.00000058     -1335.5307908850 -1.34E+03

  *** SCF run converged in     1 steps ***


  Electronic density on regular grids:       -315.9999999999        0.0000000001
  Core density on regular grids:              321.9999999999       -0.0000000001
  Total charge density on r-space grids:        6.0000000000
  Total charge density g-space grids:           6.0000000000

  Overlap energy of the core charge distribution:               0.00000038022320
  Self energy of the core charge distribution:              -2631.59580429473499
  Core Hamiltonian energy:                                    745.02417761573361
  Hartree energy:                                             754.91837046575665
  Exchange-correlation energy:                               -203.85113178324394

  DFT+U energy:                                                -0.02640326870875

  Total energy:                                             -1335.53079088497407

  outer SCF iter =    1 RMS gradient =   0.58E-06 energy =      -1335.5307908850
  outer SCF loop converged in   1 iterations or    1 steps


  Integrated absolute spin density  :                              34.0614367102
  Ideal and single determinant S**2 :                  306.000000     306.034155

 !-----------------------------------------------------------------------------!
                     Mulliken Population Analysis

 #  Atom  Element  Kind  Atomic population (alpha,beta) Net charge  Spin moment
       1     Fe       1         9.617318     5.164227     1.218456     4.453091
       2     Fe       1         9.616045     5.173807     1.210148     4.442238
       3     Fe       1         9.611314     5.200520     1.188167     4.410794
       4     Fe       1         9.426258     5.491740     1.082002     3.934519
       5     Fe       1         9.611188     5.199878     1.188934     4.411310
       6     Fe       1         9.615798     5.172958     1.211244     4.442840
       7     Fe       1         9.617007     5.163728     1.219264     4.453279
       8     O        2         3.252363     3.214126    -0.466488     0.038237
       9     O        2         3.252377     3.214129    -0.466505     0.038248
      10     O        2         3.420410     3.207557    -0.627967     0.212853
      11     O        2         3.420410     3.207305    -0.627715     0.213104
      12     O        2         3.255164     3.219286    -0.474450     0.035877
      13     O        2         3.255151     3.219178    -0.474329     0.035973
      14     O        2         3.419983     3.212083    -0.632065     0.207900
      15     O        2         3.420063     3.211587    -0.631650     0.208475
      16     O        2         3.257192     3.227935    -0.485127     0.029257
      17     O        2         3.257243     3.227943    -0.485186     0.029300
      18     O        2         3.420384     3.216919    -0.637303     0.203465
      19     O        2         3.420548     3.215849    -0.636397     0.204699
      20     O        2         3.262508     3.259142    -0.521650     0.003366
      21     O        2         3.262580     3.259289    -0.521869     0.003291
      22     O        2         3.426190     3.228493    -0.654683     0.197697
      23     O        2         3.426531     3.228067    -0.654598     0.198464
      24     O        2         3.257076     3.227835    -0.484912     0.029241
      25     O        2         3.257065     3.227807    -0.484872     0.029259
      26     O        2         3.426179     3.228637    -0.654815     0.197542
      27     O        2         3.426328     3.228199    -0.654527     0.198130
      28     O        2         3.254923     3.219109    -0.474032     0.035813
      29     O        2         3.254932     3.219044    -0.473976     0.035888
      30     O        2         3.420514     3.216454    -0.636968     0.204060
      31     O        2         3.420653     3.215398    -0.636051     0.205256
      32     O        2         3.252436     3.214391    -0.466827     0.038045
      33     O        2         3.252438     3.214388    -0.466825     0.038050
      34     O        2         3.420024     3.211540    -0.631563     0.208484
      35     O        2         3.420110     3.211050    -0.631160     0.209060
      36     H        3         0.337263     0.334736     0.328002     0.002527
      37     H        3         0.336687     0.334160     0.329153     0.002526
      38     H        3         0.336761     0.334230     0.329009     0.002530
      39     H        3         0.337219     0.334702     0.328079     0.002518
      40     H        3         0.347645     0.339245     0.313110     0.008399
      41     H        3         0.347634     0.339236     0.313131     0.008398
      42     H        3         0.338489     0.336492     0.325018     0.001997
      43     H        3         0.337955     0.336113     0.325932     0.001842
      44     H        3         0.338055     0.336192     0.325754     0.001863
      45     H        3         0.338417     0.336431     0.325153     0.001986
      46     H        3         0.348374     0.340280     0.311346     0.008095
      47     H        3         0.348365     0.340280     0.311355     0.008085
      48     H        3         0.339745     0.337841     0.322414     0.001904
      49     H        3         0.339997     0.338174     0.321830     0.001823
      50     H        3         0.340071     0.338232     0.321698     0.001839
      51     H        3         0.339807     0.337929     0.322264     0.001878
      52     H        3         0.349560     0.341655     0.308784     0.007905
      53     H        3         0.349651     0.341776     0.308573     0.007875
      54     H        3         0.343447     0.341311     0.315242     0.002136
      55     H        3         0.343244     0.341157     0.315599     0.002088
      56     H        3         0.343438     0.341365     0.315197     0.002073
      57     H        3         0.343193     0.341027     0.315779     0.002166
      58     H        3         0.353036     0.347259     0.299705     0.005776
      59     H        3         0.352840     0.347196     0.299964     0.005645
      60     H        3         0.339809     0.337884     0.322306     0.001925
      61     H        3         0.340090     0.338248     0.321662     0.001842
      62     H        3         0.340066     0.338193     0.321741     0.001874
      63     H        3         0.339805     0.337895     0.322300     0.001909
      64     H        3         0.353031     0.347248     0.299722     0.005783
      65     H        3         0.352966     0.347346     0.299688     0.005619
      66     H        3         0.338444     0.336390     0.325167     0.002054
      67     H        3         0.337959     0.336051     0.325990     0.001908
      68     H        3         0.338057     0.336127     0.325817     0.001930
      69     H        3         0.338376     0.336332     0.325293     0.002044
      70     H        3         0.349553     0.341640     0.308807     0.007912
      71     H        3         0.349613     0.341728     0.308658     0.007885
      72     H        3         0.337245     0.334699     0.328056     0.002546
      73     H        3         0.336696     0.334137     0.329167     0.002559
      74     H        3         0.336757     0.334191     0.329052     0.002566
      75     H        3         0.337195     0.334653     0.328152     0.002542
      76     H        3         0.348384     0.340319     0.311297     0.008066
      77     H        3         0.348365     0.340306     0.311329     0.008059
 # Total charge and spin      175.000000   141.000000     6.000000    34.000000

 !-----------------------------------------------------------------------------!

 !-----------------------------------------------------------------------------!
                           Hirshfeld Charges

  #Atom  Element  Kind  Ref Charge     Population       Spin moment  Net charge
      1       Fe     1      16.000   10.736   6.379            4.357     -1.115
      2       Fe     1      16.000   10.731   6.383            4.348     -1.114
      3       Fe     1      16.000   10.725   6.409            4.316     -1.134
      4       Fe     1      16.000   10.418   6.569            3.850     -0.987
      5       Fe     1      16.000   10.725   6.408            4.317     -1.133
      6       Fe     1      16.000   10.730   6.382            4.349     -1.112
      7       Fe     1      16.000   10.735   6.378            4.358     -1.113
      8       O      2       6.000    3.350   3.290            0.060     -0.640
      9       O      2       6.000    3.349   3.290            0.060     -0.639
     10       O      2       6.000    3.168   2.926            0.242     -0.094
     11       O      2       6.000    3.168   2.926            0.242     -0.094
     12       O      2       6.000    3.362   3.306            0.055     -0.668
     13       O      2       6.000    3.362   3.306            0.055     -0.668
     14       O      2       6.000    3.170   2.933            0.238     -0.103
     15       O      2       6.000    3.170   2.932            0.238     -0.103
     16       O      2       6.000    3.368   3.319            0.049     -0.686
     17       O      2       6.000    3.367   3.318            0.049     -0.685
     18       O      2       6.000    3.172   2.938            0.234     -0.110
     19       O      2       6.000    3.173   2.938            0.235     -0.110
     20       O      2       6.000    3.383   3.356            0.027     -0.739
     21       O      2       6.000    3.384   3.357            0.026     -0.741
     22       O      2       6.000    3.173   2.950            0.223     -0.123
     23       O      2       6.000    3.174   2.951            0.223     -0.125
     24       O      2       6.000    3.367   3.318            0.049     -0.685
     25       O      2       6.000    3.367   3.318            0.049     -0.685
     26       O      2       6.000    3.173   2.950            0.222     -0.123
     27       O      2       6.000    3.174   2.951            0.223     -0.125
     28       O      2       6.000    3.361   3.306            0.055     -0.667
     29       O      2       6.000    3.361   3.306            0.055     -0.667
     30       O      2       6.000    3.172   2.938            0.234     -0.110
     31       O      2       6.000    3.172   2.937            0.235     -0.110
     32       O      2       6.000    3.350   3.291            0.059     -0.640
     33       O      2       6.000    3.350   3.290            0.059     -0.640
     34       O      2       6.000    3.170   2.932            0.238     -0.102
     35       O      2       6.000    3.170   2.931            0.239     -0.102
     36       H      3       1.000    0.205   0.203            0.002      0.592
     37       H      3       1.000    0.204   0.203            0.002      0.593
     38       H      3       1.000    0.204   0.203            0.002      0.593
     39       H      3       1.000    0.205   0.203            0.002      0.592
     40       H      3       1.000    0.210   0.202            0.007      0.588
     41       H      3       1.000    0.210   0.202            0.007      0.588
     42       H      3       1.000    0.206   0.204            0.001      0.590
     43       H      3       1.000    0.205   0.204            0.001      0.591
     44       H      3       1.000    0.205   0.204            0.001      0.591
     45       H      3       1.000    0.205   0.204            0.001      0.590
     46       H      3       1.000    0.210   0.203            0.007      0.587
     47       H      3       1.000    0.210   0.203            0.007      0.587
     48       H      3       1.000    0.206   0.205            0.001      0.589
     49       H      3       1.000    0.206   0.205            0.001      0.589
     50       H      3       1.000    0.206   0.205            0.001      0.589
     51       H      3       1.000    0.206   0.205            0.001      0.589
     52       H      3       1.000    0.211   0.204            0.007      0.585
     53       H      3       1.000    0.211   0.204            0.007      0.585
     54       H      3       1.000    0.208   0.207            0.001      0.585
     55       H      3       1.000    0.208   0.207            0.001      0.585
     56       H      3       1.000    0.208   0.207            0.001      0.585
     57       H      3       1.000    0.208   0.207            0.001      0.586
     58       H      3       1.000    0.212   0.207            0.006      0.581
     59       H      3       1.000    0.212   0.207            0.005      0.581
     60       H      3       1.000    0.206   0.205            0.001      0.589
     61       H      3       1.000    0.206   0.205            0.001      0.589
     62       H      3       1.000    0.206   0.205            0.001      0.589
     63       H      3       1.000    0.206   0.205            0.001      0.589
     64       H      3       1.000    0.212   0.207            0.006      0.581
     65       H      3       1.000    0.212   0.207            0.005      0.581
     66       H      3       1.000    0.205   0.204            0.001      0.591
     67       H      3       1.000    0.205   0.204            0.001      0.591
     68       H      3       1.000    0.205   0.204            0.001      0.591
     69       H      3       1.000    0.205   0.204            0.001      0.591
     70       H      3       1.000    0.211   0.204            0.007      0.585
     71       H      3       1.000    0.211   0.204            0.007      0.585
     72       H      3       1.000    0.205   0.203            0.002      0.593
     73       H      3       1.000    0.204   0.203            0.002      0.593
     74       H      3       1.000    0.204   0.203            0.002      0.593
     75       H      3       1.000    0.205   0.203            0.002      0.593
     76       H      3       1.000    0.210   0.203            0.007      0.587
     77       H      3       1.000    0.210   0.203            0.007      0.587

  Total Charge                                                            6.016
 !-----------------------------------------------------------------------------!

 *** WARNING in dft_plus_u.F:1457 :: DFT+U energy contibution is negative ***
 *** possibly due to unphysical Mulliken charges. Check your input, if    ***
 *** this warning persists or try a different method!                     ***


 *** WARNING in dft_plus_u.F:1457 :: DFT+U energy contibution is negative ***
 *** possibly due to unphysical Mulliken charges. Check your input, if    ***
 *** this warning persists or try a different method!                     ***


 ENERGY| Total FORCE_EVAL ( QS ) energy (a.u.):            -1335.530790891176139


 --------  Informations at step =     0 ------------
  Optimization Method        =                   SD
  Total Energy               =     -1335.5307908912
  Used time                  =               16.779
 ---------------------------------------------------

 --------------------------
 OPTIMIZATION STEP:      1
 --------------------------

 Spin 1

 Number of electrons:                                                        175
 Number of occupied orbitals:                                                175
 Number of molecular orbitals:                                               175

 Spin 2

 Number of electrons:                                                        141
 Number of occupied orbitals:                                                141
 Number of molecular orbitals:                                               141

 Number of orbital functions:                                                441
 Number of independent orbital functions:                                    441

 Parameters for the always stable predictor-corrector (ASPC) method:

  ASPC order: 0

  B(1) =   1.000000

 Parameters for the always stable predictor-corrector (ASPC) method:

  ASPC order: 0

  B(1) =   1.000000

 Extrapolation method: ASPC


 SCF WAVEFUNCTION OPTIMIZATION

  ----------------------------------- OT ---------------------------------------
  Minimizer      : CG                  : conjugate gradient
  Preconditioner : FULL_KINETIC        : inversion of T + eS
  Precond_solver : DEFAULT
  Line search    : 2PNT                : 2 energies, one gradient
  stepsize       :    0.15000000                  energy_gap     :    0.20000000
  eps_taylor     :   0.10000E-15                  max_taylor     :             4
  ----------------------------------- OT ---------------------------------------

  Step     Update method      Time    Convergence         Total energy    Change
  ------------------------------------------------------------------------------

 *** WARNING in dft_plus_u.F:1457 :: DFT+U energy contibution is negative ***
 *** possibly due to unphysical Mulliken charges. Check your input, if    ***
 *** this warning persists or try a different method!                     ***

     1 OT CG       0.15E+00    5.8     0.00000047     -1335.5307908912 -1.34E+03

  *** SCF run converged in     1 steps ***


  Electronic density on regular grids:       -315.9999999999        0.0000000001
[...]
 flops     2 x     8 x    15            798174720     100.0%      0.0%      0.0%
 flops    55 x    13 x    56            832992160     100.0%      0.0%      0.0%
 flops    56 x    13 x    55            832992160     100.0%      0.0%      0.0%
 flops    19 x    19 x    15            857562720     100.0%      0.0%      0.0%
 flops    13 x    13 x    55            870309440     100.0%      0.0%      0.0%
 flops     2 x    13 x     2            886092480     100.0%      0.0%      0.0%
 flops    55 x    15 x    56            961144800     100.0%      0.0%      0.0%
 flops    56 x    15 x    55            961144800     100.0%      0.0%      0.0%
 flops     2 x    15 x     2            999976320     100.0%      0.0%      0.0%
 flops    19 x     8 x    13           1095273088     100.0%      0.0%      0.0%
 flops     8 x    19 x    13           1095273088     100.0%      0.0%      0.0%
 flops    15 x    15 x    55           1158696000     100.0%      0.0%      0.0%
 flops    55 x    13 x    13           1201880680     100.0%      0.0%      0.0%
 flops    13 x    32 x    56           1246429184     100.0%      0.0%      0.0%
 flops    32 x    13 x    56           1246429184     100.0%      0.0%      0.0%
 flops    19 x     8 x    15           1263776640     100.0%      0.0%      0.0%
 flops     8 x    19 x    15           1263776640     100.0%      0.0%      0.0%
 flops    19 x    13 x     2           1402979760     100.0%      0.0%      0.0%
 flops     2 x    13 x    19           1402979760     100.0%      0.0%      0.0%
 flops    19 x    15 x     2           1583295840     100.0%      0.0%      0.0%
 flops     2 x    15 x    19           1583295840     100.0%      0.0%      0.0%
 flops    55 x    15 x    15           1600137000     100.0%      0.0%      0.0%
 flops    56 x    13 x    32           1721294848     100.0%      0.0%      0.0%
 flops    56 x    32 x    13           1721294848     100.0%      0.0%      0.0%
 flops    15 x    32 x    56           1797734400     100.0%      0.0%      0.0%
 flops    32 x    15 x    56           1797734400     100.0%      0.0%      0.0%
 flops     8 x     8 x    13           1910551552     100.0%      0.0%      0.0%
 flops     8 x     8 x    15           2204482560     100.0%      0.0%      0.0%
 flops    19 x    13 x    19           2221384620     100.0%      0.0%      0.0%
 flops     8 x    13 x     2           2362913280     100.0%      0.0%      0.0%
 flops     2 x    13 x     8           2362913280     100.0%      0.0%      0.0%
 flops    56 x    15 x    32           2482636800     100.0%      0.0%      0.0%
 flops    56 x    32 x    15           2482636800     100.0%      0.0%      0.0%
 flops    19 x    15 x    19           2506885080     100.0%      0.0%      0.0%
 flops    32 x    32 x    13           2561867776     100.0%      0.0%      0.0%
 flops    13 x    32 x    32           2561867776     100.0%      0.0%      0.0%
 flops    32 x    13 x    32           2561867776     100.0%      0.0%      0.0%
 flops     8 x    15 x     2           2666603520     100.0%      0.0%      0.0%
 flops     2 x    15 x     8           2666603520     100.0%      0.0%      0.0%
 flops    56 x    32 x    56           2684215296     100.0%      0.0%      0.0%
 flops    19 x    13 x     8           3741279360     100.0%      0.0%      0.0%
 flops     8 x    13 x    19           3741279360     100.0%      0.0%      0.0%
 flops    32 x    32 x    15           3997440000     100.0%      0.0%      0.0%
 flops    15 x    32 x    32           3997440000     100.0%      0.0%      0.0%
 flops    32 x    15 x    32           3997440000     100.0%      0.0%      0.0%
 flops    19 x    15 x     8           4222122240     100.0%      0.0%      0.0%
 flops     8 x    15 x    19           4222122240     100.0%      0.0%      0.0%
 flops    55 x    13 x    55           5726821100     100.0%      0.0%      0.0%
 flops     2 x     2 x    32           5883687936     100.0%      0.0%      0.0%
 flops     8 x    13 x     8           6301102080     100.0%      0.0%      0.0%
 flops    55 x    15 x    55           6607870500     100.0%      0.0%      0.0%
 flops     8 x    15 x     8           7110942720     100.0%      0.0%      0.0%
 flops    13 x    32 x    55           8569200640     100.0%      0.0%      0.0%
 flops    32 x    13 x    55           8569200640     100.0%      0.0%      0.0%
 flops    19 x     2 x    32           9099191808     100.0%      0.0%      0.0%
 flops     2 x    19 x    32           9099191808     100.0%      0.0%      0.0%
 flops    55 x    32 x    13          11833902080     100.0%      0.0%      0.0%
 flops    55 x    13 x    32          11833902080     100.0%      0.0%      0.0%
 flops    15 x    32 x    55          12359424000     100.0%      0.0%      0.0%
 flops    32 x    15 x    55          12359424000     100.0%      0.0%      0.0%
 flops     8 x     2 x    32          15324954624     100.0%      0.0%      0.0%
 flops     2 x     8 x    32          15324954624     100.0%      0.0%      0.0%
 flops    19 x    19 x    32          16465204224     100.0%      0.0%      0.0%
 flops    55 x    32 x    15          17068128000     100.0%      0.0%      0.0%
 flops    55 x    15 x    32          17068128000     100.0%      0.0%      0.0%
 flops    55 x    32 x    56          18453980160     100.0%      0.0%      0.0%
 flops    56 x    32 x    55          18453980160     100.0%      0.0%      0.0%
 flops     2 x    32 x     2          19391016960     100.0%      0.0%      0.0%
 flops    19 x     8 x    32          24264511488     100.0%      0.0%      0.0%
 flops     8 x    19 x    32          24264511488     100.0%      0.0%      0.0%
 flops    19 x    32 x     2          30702443520     100.0%      0.0%      0.0%
 flops     2 x    32 x    19          30702443520     100.0%      0.0%      0.0%
 flops    32 x    32 x    56          31448367104     100.0%      0.0%      0.0%
 flops     8 x     8 x    32          42326065152     100.0%      0.0%      0.0%
 flops    56 x    32 x    32          43429593088     100.0%      0.0%      0.0%
 flops    19 x    32 x    19          48612202240     100.0%      0.0%      0.0%
 flops     8 x    32 x     2          51709378560     100.0%      0.0%      0.0%
 flops     2 x    32 x     8          51709378560     100.0%      0.0%      0.0%
 flops    32 x    32 x    32          67863904256     100.0%      0.0%      0.0%
 flops    19 x    32 x     8          81873182720     100.0%      0.0%      0.0%
 flops     8 x    32 x    19          81873182720     100.0%      0.0%      0.0%
 flops    55 x    32 x    55         126871113600     100.0%      0.0%      0.0%
 flops     8 x    32 x     8         137891676160     100.0%      0.0%      0.0%
 flops    32 x    32 x    55         216207523840     100.0%      0.0%      0.0%
 flops    55 x    32 x    32         298578452480     100.0%      0.0%      0.0%
 flops inhomo. stacks                           0       0.0%      0.0%      0.0%
 flops total                         1.746666E+12     100.0%      0.0%      0.0%
 flops max/rank                     49.004479E+09     100.0%      0.0%      0.0%
 matmuls inhomo. stacks                         0       0.0%      0.0%      0.0%
 matmuls total                          415437118     100.0%      0.0%      0.0%
 number of processed stacks              53327746     100.0%      0.0%      0.0%
 average stack size                                     7.8       0.0       0.0
 marketing flops                     1.924993E+12
 -------------------------------------------------------------------------------
 # multiplications                          61673
 max memory usage/rank               1.084019E+09
 # max total images/rank                        1
 # max 3D layers                                1
 # MPI messages exchanged                55259008
 MPI messages size (bytes):
  total size                       464.419193E+09
  min size                           0.000000E+00
  max size                          25.088000E+03
  average size                       8.404407E+03
 MPI breakdown and total messages size (bytes):
             size <=      128            19633782                        0
       128 < size <=     8192            12559498              81372363744
      8192 < size <=    32768            23065728             382731841296
     32768 < size <=   131072                   0                        0
    131072 < size <=  4194304                   0                        0
   4194304 < size <= 16777216                   0                        0
  16777216 < size                               0                        0
 -------------------------------------------------------------------------------

 MEMORY| Estimated peak process memory [MiB]                                1034

 -------------------------------------------------------------------------------
 ----                             MULTIGRID INFO                            ----
 -------------------------------------------------------------------------------
 count for grid        1:        3306115          cutoff [a.u.]          325.00
 count for grid        2:        1937573          cutoff [a.u.]          108.33
 count for grid        3:        1662382          cutoff [a.u.]           36.11
 count for grid        4:         902300          cutoff [a.u.]           12.04
 count for grid        5:           5760          cutoff [a.u.]            4.01
 count for grid        6:              0          cutoff [a.u.]            1.34
 count for grid        7:              0          cutoff [a.u.]            0.45
 count for grid        8:              0          cutoff [a.u.]            0.15
 count for grid        9:              0          cutoff [a.u.]            0.05
 count for grid       10:              0          cutoff [a.u.]            0.02
 total gridlevel count  :        7814130

 -------------------------------------------------------------------------------
 -                                                                             -
 -                         MESSAGE PASSING PERFORMANCE                         -
 -                                                                             -
 -------------------------------------------------------------------------------

 ROUTINE             CALLS      AVE VOLUME [Bytes]
 MP_Group             2842
 MP_Bcast            32524                  11543.
 MP_Allreduce       400821                     48.
 MP_Sync             50751
 MP_Alltoall        376139               11497283.
 MP_ISendRecv      4241664                  79637.
 MP_Wait          10456004
 MP_comm_split         245
 MP_ISend          3288000                 137249.
 MP_IRecv          3282752                 136859.
 MP_Recv              2506                  70560.
 MP_Memory         2475776
 -------------------------------------------------------------------------------


 -------------------------------------------------------------------------------
 -                                                                             -
 -                           R E F E R E N C E S                               -
 -                                                                             -
 -------------------------------------------------------------------------------
 
 CP2K version 6.1, the CP2K developers group (2018).
 CP2K is freely available from https://www.cp2k.org/ .

 Schuett, Ole; Messmer, Peter; Hutter, Juerg; VandeVondele, Joost. 
 Electronic Structure Calculations on Graphics Processing Units, John Wiley & Sons, Ltd, 173-190 (2016). 
 GPU-Accelerated Sparse Matrix-Matrix Multiplication for Linear Scaling Density Functional Theory.
 http://dx.doi.org/10.1002/9781118670712.ch8


 Borstnik, U; VandeVondele, J; Weber, V; Hutter, J. 
 PARALLEL COMPUTING, 40 (5-6), 47-58 (2014). 
 Sparse matrix multiplication: The distributed block-compressed sparse
 row library.
 http://dx.doi.org/10.1016/j.parco.2014.03.012


 Hutter, J; Iannuzzi, M; Schiffmann, F; VandeVondele, J. 
 WILEY INTERDISCIPLINARY REVIEWS-COMPUTATIONAL MOLECULAR SCIENCE, 4 (1), 15-25 (2014). 
 CP2K: atomistic simulations of condensed matter systems.
 http://dx.doi.org/10.1002/wcms.1159


 Krack, M. 
 THEORETICAL CHEMISTRY ACCOUNTS, 114 (1-3), 145-152 (2005). 
 Pseudopotentials for H to Kr optimized for gradient-corrected
 exchange-correlation functionals.
 http://dx.doi.org/10.1007/s00214-005-0655-y


 VandeVondele, J; Krack, M; Mohamed, F; Parrinello, M; Chassaing, T;
 Hutter, J. COMPUTER PHYSICS COMMUNICATIONS, 167 (2), 103-128 (2005). 
 QUICKSTEP: Fast and accurate density functional calculations using a
 mixed Gaussian and plane waves approach.
 http://dx.doi.org/10.1016/j.cpc.2004.12.014


 Frigo, M; Johnson, SG. 
 PROCEEDINGS OF THE IEEE, 93 (2), 216-231 (2005). 
 The design and implementation of FFTW3.
 http://dx.doi.org/10.1109/JPROC.2004.840301


 Kolafa, J. 
 JOURNAL OF COMPUTATIONAL CHEMISTRY, 25 (3), 335-342 (2004). 
 Time-reversible always stable predictor-corrector method for molecular dynamics of polarizable molecules.
 http://dx.doi.org/10.1002/jcc.10385


 VandeVondele, J; Hutter, J. 
 JOURNAL OF CHEMICAL PHYSICS, 118 (10), 4365-4369 (2003). 
 An efficient orbital transformation method for electronic structure
 calculations.
 http://dx.doi.org/10.1063/1.1543154


 Hartwigsen, C; Goedecker, S; Hutter, J. 
 PHYSICAL REVIEW B, 58 (7), 3641-3662 (1998). 
 Relativistic separable dual-space Gaussian pseudopotentials from H to Rn.
 http://dx.doi.org/10.1103/PhysRevB.58.3641


 Dudarev, SL; Botton, GA; Savrasov, SY; Humphreys, CJ; Sutton, AP. 
 PHYSICAL REVIEW B, 57 (3), 1505-1509 (1998). 
 Electron-energy-loss spectra and the structural stability of
 nickel oxide: An LSDA+U study.
 http://dx.doi.org/10.1103/PhysRevB.57.1505


 Lippert, G; Hutter, J; Parrinello, M. 
 MOLECULAR PHYSICS, 92 (3), 477-487 (1997). 
 A hybrid Gaussian and plane wave density functional scheme.
 http://dx.doi.org/10.1080/002689797170220


 Dudarev, SL; Manh, DN; Sutton, AP. 
 PHILOSOPHICAL MAGAZINE B, 75 (5), 613-628 (1997). 
 Effect of Mott-Hubbard correlations on the electronic
 structure and structural stability of uranium dioxide.
 http://dx.doi.org/10.1080/13642819708202343


 Goedecker, S; Teter, M; Hutter, J. 
 PHYSICAL REVIEW B, 54 (3), 1703-1710 (1996). 
 Separable dual-space Gaussian pseudopotentials.
 http://dx.doi.org/10.1103/PhysRevB.54.1703


 BECKE, AD. PHYSICAL REVIEW A, 38 (6), 3098-3100 (1988). 
 DENSITY-FUNCTIONAL EXCHANGE-ENERGY APPROXIMATION WITH CORRECT
 ASYMPTOTIC-BEHAVIOR.
 http://dx.doi.org/10.1103/PhysRevA.38.3098


 LEE, CT; YANG, WT; PARR, RG. 
 PHYSICAL REVIEW B, 37 (2), 785-789 (1988). 
 DEVELOPMENT OF THE COLLE-SALVETTI CORRELATION-ENERGY FORMULA INTO A
 FUNCTIONAL OF THE ELECTRON-DENSITY.
 http://dx.doi.org/10.1103/PhysRevB.37.785


 -------------------------------------------------------------------------------
 -                                                                             -
 -                                T I M I N G                                  -
 -                                                                             -
 -------------------------------------------------------------------------------
 SUBROUTINE                       CALLS  ASD         SELF TIME        TOTAL TIME
                                MAXIMUM       AVERAGE  MAXIMUM  AVERAGE  MAXIMUM
 CP2K                                 1  1.0     0.08     0.14 15953.54 15953.56
 cp_geo_opt                           1  2.0     0.05     0.05 15952.17 15952.17
 geoopt_cg                            1  3.0     0.00     0.00 15952.12 15952.12
 cp_cg_main                           1  4.0     0.00     0.00 15952.12 15952.12
 cp_eval_at                         106  8.6     0.01     0.02 15952.10 15952.10
 qs_energies                        106 10.2     0.01     0.01 15546.49 15546.50
 scf_env_do_scf                     106 11.2     0.01     0.01 15270.71 15270.72
 cg_linmin                           10  5.0     0.00     0.00 14836.72 14836.72
 linmin_gold                         10  6.0     0.00     0.00 14836.72 14836.72
 scf_env_do_scf_inner_loop         2654 12.4     0.10     0.21 14653.98 14655.17
 pw_transfer                     124594 17.7     7.33     9.05 11243.56 11387.57
 fft_wrap_pw1pw2                 119150 18.7     1.04     1.24 11171.34 11314.86
 qs_forces                           68  9.4     0.01     0.01 11072.80 11072.81
 rebuild_ks_matrix                 2722 14.3     0.01     0.01 10997.24 10997.57
 qs_ks_build_kohn_sham_matrix      2722 15.3     0.65     0.78 10997.24 10997.56
 fft_wrap_pw1pw2_330              43406 20.2   681.52   703.73 10633.67 10803.14
 qs_ks_update_qs_env               2760 13.4     0.08     0.09 10594.46 10594.77
 cg_dbrent                           10  7.0     0.00     0.00 10024.04 10024.04
 cg_deval1d                          58  8.0     0.00     0.00 10024.04 10024.04
 fft3d_ps                        119150 20.7  4806.70  5474.11  8945.56  9121.55
 qs_vxc_create                     2722 16.3     0.04     0.07  8491.50  8502.81
 xc_vxc_pw_create                  1448 17.3   119.51   159.19  6062.88  6074.25
 xc_rho_set_and_dset_create        2722 18.3   241.68   273.22  5075.00  5167.70
 cg_mnbrak                           10  7.0     0.00     0.00  4812.68  4812.68
 cg_eval1d                           37  8.0     0.00     0.00  4812.68  4812.68
 qs_rho_update_rho                 2760 13.5     0.02     0.02  4784.74  4784.94
 calculate_rho_elec                5520 14.5   150.61   649.08  4784.72  4784.92
 density_rs2pw                     5520 15.5     0.46     0.52  4346.00  4503.86
 mp_alltoall_z22v                119150 22.7  2815.25  3120.46  2815.25  3120.46
 x_to_yz                          31988 22.6   908.00  1044.19  2479.97  2590.92
 xc_exc_calc                       1274 17.4    11.23    12.97  2428.58  2428.71
 rs_pw_transfer                   84652 17.4     0.77     0.91  1916.18  1990.41
 sum_up_and_integrate              1448 16.3    16.75    19.68  1799.67  1800.03
 yz_to_x                          28250 21.3   389.07   413.03  1630.06  1786.21
 integrate_v_rspace                2896 17.3    45.24   244.21  1782.92  1783.81
 potential_pw2rs                   2896 18.3     2.44     2.80  1533.36  1534.59
 pw_scatter_p                     52260 21.9   843.11   868.30   843.11   868.30
 rs_pw_transfer_RS2PW_330          5732 17.4   303.73   372.08   755.26   840.65
 mp_waitany                     1178032 19.4   588.42   718.67   588.42   718.67
 pw_gather_p                      66890 19.8   669.66   689.76   669.66   689.76
 init_scf_loop                      106 12.2     0.00     0.00   615.19   615.20
 pw_derive                        25020 19.0   500.50   532.77   500.50   532.77
 fft_wrap_pw1pw2_110               8416 19.4    26.21    27.36   429.28   466.67
 qs_ks_update_qs_env_forces          68 10.4     0.00     0.00   403.93   403.95
 pw_copy                          59008 19.1   332.59   390.33   332.59   390.33
 rs_pw_transfer_PW2RS_330          3176 19.9   199.79   208.40   314.98   323.48
 -------------------------------------------------------------------------------

 The number of warnings for this run is : 2790
 
 -------------------------------------------------------------------------------
  **** **** ******  **  PROGRAM ENDED AT                 2019-08-09 18:52:39.229
 ***** ** ***  *** **   PROGRAM RAN ON            cpn-u25-20.cbls.ccr.buffalo.ed
 **    ****   ******    PROGRAM RAN BY                                  pavankum
 ***** **    ** ** **   PROGRAM PROCESS ID                                 11416
  **** **  *******  **  PROGRAM STOPPED IN /projects/academic/mdupuis2/pavan/VAB
                                           _calculation/results_for_paper/3.1D_F
                                           e_7units/blyp_plusU5/def_opts/gopt_st
                                           ate1
