 DBCSR| Multiplication driver                                               BLAS
 DBCSR| Multrec recursion limit                                              512
 DBCSR| Multiplication stack size                                           1000
 DBCSR| Maximum elements for images                                    UNLIMITED
 DBCSR| Multiplicative factor virtual images                                   1
 DBCSR| Multiplication size stacks                                             3
 DBCSR| Number of 3D layers                                               SINGLE
 DBCSR| Use MPI memory allocation                                              T
 DBCSR| Use RMA algorithm                                                      F
 DBCSR| Use Communication thread                                               T
 DBCSR| Communication thread load                                             87


  **** **** ******  **  PROGRAM STARTED AT               2019-08-15 17:21:56.629
 ***** ** ***  *** **   PROGRAM STARTED ON        cpn-u22-23.cbls.ccr.buffalo.ed
 **    ****   ******    PROGRAM STARTED BY                              pavankum
 ***** **    ** ** **   PROGRAM PROCESS ID                                 46575
  **** **  *******  **  PROGRAM STARTED IN /projects/academic/mdupuis2/pavan/VAB
                                           _calculation/results_for_paper/8.Hema
                                           tite_dzv/mixed

 CP2K| version string:                                          CP2K version 6.1
 CP2K| source code revision number:                                    svn:18464
 CP2K| cp2kflags: libint fftw3 libxc parallel mpi3 scalapack libderiv_max_am1=5 
 CP2K|            libint_max_am=6
 CP2K| is freely available from                            https://www.cp2k.org/
 CP2K| Program compiled at                          Fri Nov 30 14:17:09 EST 2018
 CP2K| Program compiled on                       srv-p22-12.cbls.ccr.buffalo.edu
 CP2K| Program compiled for                                                local
 CP2K| Data directory path    /projects/academic/mdupuis2/pavan/cp2k/cp2k-6.1/da
 CP2K| Input file name                                                 input.inp

 GLOBAL| Force Environment number                                              3
 GLOBAL| Basis set file name                                           BASIS_SET
 GLOBAL| Potential file name                                           POTENTIAL
 GLOBAL| MM Potential file name                                     MM_POTENTIAL
 GLOBAL| Coordinate file name                                     ./geometry.xyz
 GLOBAL| Force Environment number                                              1
 GLOBAL| Basis set file name            /projects/academic/mdupuis2/pavan/BASIS_
 GLOBAL| Potential file name            /projects/academic/mdupuis2/pavan/POTENT
 GLOBAL| MM Potential file name                                     MM_POTENTIAL
 GLOBAL| Coordinate file name                                     ./geometry.xyz
 GLOBAL| Force Environment number                                              2
 GLOBAL| Basis set file name            /projects/academic/mdupuis2/pavan/BASIS_
 GLOBAL| Potential file name            /projects/academic/mdupuis2/pavan/POTENT
 GLOBAL| MM Potential file name                                     MM_POTENTIAL
 GLOBAL| Coordinate file name                                     ./geometry.xyz
 GLOBAL| Method name                                                        CP2K
 GLOBAL| Project name                                                      p_fe_
 GLOBAL| Preferred FFT library                                             FFTW3
 GLOBAL| Preferred diagonalization lib.                                       SL
 GLOBAL| Run type                                                         ENERGY
 GLOBAL| All-to-all communication in single precision                          F
 GLOBAL| FFTs using library dependent lengths                                  T
 GLOBAL| Global print level                                               MEDIUM
 GLOBAL| Total number of message passing processes                          1024
 GLOBAL| Number of threads for this process                                    1
 GLOBAL| This output is from process                                           0
 GLOBAL| CPU model name :  Intel(R) Xeon(R) Gold 6130 CPU @ 2.10GHz

 MEMORY| system memory details [Kb]
 MEMORY|                        rank 0           min           max       average
 MEMORY| MemTotal            196268364     196268360     196268364     196268363
 MEMORY| MemFree             188688424     188645376     189106732     188905721
 MEMORY| Buffers                335544        297332        342568        326032
 MEMORY| Cached                1135144        886108       1170240        997018
 MEMORY| Slab                   536420        486444        538248        507714
 MEMORY| SReclaimable           201508        173068        209472        188945
 MEMORY| MemLikelyFree       190360620     190360620     190463240     190417717


 *** Fundamental physical constants (SI units) ***

 *** Literature: B. J. Mohr and B. N. Taylor,
 ***             CODATA recommended values of the fundamental physical
 ***             constants: 2006, Web Version 5.1
 ***             http://physics.nist.gov/constants

 Speed of light in vacuum [m/s]                             2.99792458000000E+08
 Magnetic constant or permeability of vacuum [N/A**2]       1.25663706143592E-06
 Electric constant or permittivity of vacuum [F/m]          8.85418781762039E-12
 Planck constant (h) [J*s]                                  6.62606896000000E-34
 Planck constant (h-bar) [J*s]                              1.05457162825177E-34
 Elementary charge [C]                                      1.60217648700000E-19
 Electron mass [kg]                                         9.10938215000000E-31
 Electron g factor [ ]                                     -2.00231930436220E+00
 Proton mass [kg]                                           1.67262163700000E-27
 Fine-structure constant                                    7.29735253760000E-03
 Rydberg constant [1/m]                                     1.09737315685270E+07
 Avogadro constant [1/mol]                                  6.02214179000000E+23
 Boltzmann constant [J/K]                                   1.38065040000000E-23
 Atomic mass unit [kg]                                      1.66053878200000E-27
 Bohr radius [m]                                            5.29177208590000E-11

 *** Conversion factors ***

 [u] -> [a.u.]                                              1.82288848426455E+03
 [Angstrom] -> [Bohr] = [a.u.]                              1.88972613288564E+00
 [a.u.] = [Bohr] -> [Angstrom]                              5.29177208590000E-01
 [a.u.] -> [s]                                              2.41888432650478E-17
 [a.u.] -> [fs]                                             2.41888432650478E-02
 [a.u.] -> [J]                                              4.35974393937059E-18
 [a.u.] -> [N]                                              8.23872205491840E-08
 [a.u.] -> [K]                                              3.15774647902944E+05
 [a.u.] -> [kJ/mol]                                         2.62549961709828E+03
 [a.u.] -> [kcal/mol]                                       6.27509468713739E+02
 [a.u.] -> [Pa]                                             2.94210107994716E+13
 [a.u.] -> [bar]                                            2.94210107994716E+08
 [a.u.] -> [atm]                                            2.90362800883016E+08
 [a.u.] -> [eV]                                             2.72113838565563E+01
 [a.u.] -> [Hz]                                             6.57968392072181E+15
 [a.u.] -> [1/cm] (wave numbers)                            2.19474631370540E+05
 [a.u./Bohr**2] -> [1/cm]                                   5.14048714338585E+03
 
 MIXED_ENV| Number of created MPI groups:                                      1
 MIXED_ENV| Task to group correspondence:
  (   0 :    0)  (   1 :    0)  (   2 :    0)  (   3 :    0)
  (   4 :    0)  (   5 :    0)  (   6 :    0)  (   7 :    0)
  (   8 :    0)  (   9 :    0)  (  10 :    0)  (  11 :    0)
  (  12 :    0)  (  13 :    0)  (  14 :    0)  (  15 :    0)
  (  16 :    0)  (  17 :    0)  (  18 :    0)  (  19 :    0)
  (  20 :    0)  (  21 :    0)  (  22 :    0)  (  23 :    0)
  (  24 :    0)  (  25 :    0)  (  26 :    0)  (  27 :    0)
  (  28 :    0)  (  29 :    0)  (  30 :    0)  (  31 :    0)
  (  32 :    0)  (  33 :    0)  (  34 :    0)  (  35 :    0)
  (  36 :    0)  (  37 :    0)  (  38 :    0)  (  39 :    0)
  (  40 :    0)  (  41 :    0)  (  42 :    0)  (  43 :    0)
  (  44 :    0)  (  45 :    0)  (  46 :    0)  (  47 :    0)
  (  48 :    0)  (  49 :    0)  (  50 :    0)  (  51 :    0)
  (  52 :    0)  (  53 :    0)  (  54 :    0)  (  55 :    0)
  (  56 :    0)  (  57 :    0)  (  58 :    0)  (  59 :    0)
  (  60 :    0)  (  61 :    0)  (  62 :    0)  (  63 :    0)
  (  64 :    0)  (  65 :    0)  (  66 :    0)  (  67 :    0)
  (  68 :    0)  (  69 :    0)  (  70 :    0)  (  71 :    0)
  (  72 :    0)  (  73 :    0)  (  74 :    0)  (  75 :    0)
  (  76 :    0)  (  77 :    0)  (  78 :    0)  (  79 :    0)
  (  80 :    0)  (  81 :    0)  (  82 :    0)  (  83 :    0)
  (  84 :    0)  (  85 :    0)  (  86 :    0)  (  87 :    0)
  (  88 :    0)  (  89 :    0)  (  90 :    0)  (  91 :    0)
  (  92 :    0)  (  93 :    0)  (  94 :    0)  (  95 :    0)
  (  96 :    0)  (  97 :    0)  (  98 :    0)  (  99 :    0)
  ( 100 :    0)  ( 101 :    0)  ( 102 :    0)  ( 103 :    0)
  ( 104 :    0)  ( 105 :    0)  ( 106 :    0)  ( 107 :    0)
  ( 108 :    0)  ( 109 :    0)  ( 110 :    0)  ( 111 :    0)
  ( 112 :    0)  ( 113 :    0)  ( 114 :    0)  ( 115 :    0)
  ( 116 :    0)  ( 117 :    0)  ( 118 :    0)  ( 119 :    0)
  ( 120 :    0)  ( 121 :    0)  ( 122 :    0)  ( 123 :    0)
  ( 124 :    0)  ( 125 :    0)  ( 126 :    0)  ( 127 :    0)
  ( 128 :    0)  ( 129 :    0)  ( 130 :    0)  ( 131 :    0)
  ( 132 :    0)  ( 133 :    0)  ( 134 :    0)  ( 135 :    0)
  ( 136 :    0)  ( 137 :    0)  ( 138 :    0)  ( 139 :    0)
  ( 140 :    0)  ( 141 :    0)  ( 142 :    0)  ( 143 :    0)
  ( 144 :    0)  ( 145 :    0)  ( 146 :    0)  ( 147 :    0)
  ( 148 :    0)  ( 149 :    0)  ( 150 :    0)  ( 151 :    0)
  ( 152 :    0)  ( 153 :    0)  ( 154 :    0)  ( 155 :    0)
  ( 156 :    0)  ( 157 :    0)  ( 158 :    0)  ( 159 :    0)
  ( 160 :    0)  ( 161 :    0)  ( 162 :    0)  ( 163 :    0)
  ( 164 :    0)  ( 165 :    0)  ( 166 :    0)  ( 167 :    0)
  ( 168 :    0)  ( 169 :    0)  ( 170 :    0)  ( 171 :    0)
  ( 172 :    0)  ( 173 :    0)  ( 174 :    0)  ( 175 :    0)
  ( 176 :    0)  ( 177 :    0)  ( 178 :    0)  ( 179 :    0)
  ( 180 :    0)  ( 181 :    0)  ( 182 :    0)  ( 183 :    0)
  ( 184 :    0)  ( 185 :    0)  ( 186 :    0)  ( 187 :    0)
  ( 188 :    0)  ( 189 :    0)  ( 190 :    0)  ( 191 :    0)
  ( 192 :    0)  ( 193 :    0)  ( 194 :    0)  ( 195 :    0)
  ( 196 :    0)  ( 197 :    0)  ( 198 :    0)  ( 199 :    0)
  ( 200 :    0)  ( 201 :    0)  ( 202 :    0)  ( 203 :    0)
  ( 204 :    0)  ( 205 :    0)  ( 206 :    0)  ( 207 :    0)
  ( 208 :    0)  ( 209 :    0)  ( 210 :    0)  ( 211 :    0)
  ( 212 :    0)  ( 213 :    0)  ( 214 :    0)  ( 215 :    0)
  ( 216 :    0)  ( 217 :    0)  ( 218 :    0)  ( 219 :    0)
  ( 220 :    0)  ( 221 :    0)  ( 222 :    0)  ( 223 :    0)
  ( 224 :    0)  ( 225 :    0)  ( 226 :    0)  ( 227 :    0)
  ( 228 :    0)  ( 229 :    0)  ( 230 :    0)  ( 231 :    0)
  ( 232 :    0)  ( 233 :    0)  ( 234 :    0)  ( 235 :    0)
  ( 236 :    0)  ( 237 :    0)  ( 238 :    0)  ( 239 :    0)
  ( 240 :    0)  ( 241 :    0)  ( 242 :    0)  ( 243 :    0)
  ( 244 :    0)  ( 245 :    0)  ( 246 :    0)  ( 247 :    0)
  ( 248 :    0)  ( 249 :    0)  ( 250 :    0)  ( 251 :    0)
  ( 252 :    0)  ( 253 :    0)  ( 254 :    0)  ( 255 :    0)
  ( 256 :    0)  ( 257 :    0)  ( 258 :    0)  ( 259 :    0)
  ( 260 :    0)  ( 261 :    0)  ( 262 :    0)  ( 263 :    0)
  ( 264 :    0)  ( 265 :    0)  ( 266 :    0)  ( 267 :    0)
  ( 268 :    0)  ( 269 :    0)  ( 270 :    0)  ( 271 :    0)
  ( 272 :    0)  ( 273 :    0)  ( 274 :    0)  ( 275 :    0)
  ( 276 :    0)  ( 277 :    0)  ( 278 :    0)  ( 279 :    0)
  ( 280 :    0)  ( 281 :    0)  ( 282 :    0)  ( 283 :    0)
  ( 284 :    0)  ( 285 :    0)  ( 286 :    0)  ( 287 :    0)
  ( 288 :    0)  ( 289 :    0)  ( 290 :    0)  ( 291 :    0)
  ( 292 :    0)  ( 293 :    0)  ( 294 :    0)  ( 295 :    0)
  ( 296 :    0)  ( 297 :    0)  ( 298 :    0)  ( 299 :    0)
  ( 300 :    0)  ( 301 :    0)  ( 302 :    0)  ( 303 :    0)
  ( 304 :    0)  ( 305 :    0)  ( 306 :    0)  ( 307 :    0)
  ( 308 :    0)  ( 309 :    0)  ( 310 :    0)  ( 311 :    0)
  ( 312 :    0)  ( 313 :    0)  ( 314 :    0)  ( 315 :    0)
  ( 316 :    0)  ( 317 :    0)  ( 318 :    0)  ( 319 :    0)
  ( 320 :    0)  ( 321 :    0)  ( 322 :    0)  ( 323 :    0)
  ( 324 :    0)  ( 325 :    0)  ( 326 :    0)  ( 327 :    0)
  ( 328 :    0)  ( 329 :    0)  ( 330 :    0)  ( 331 :    0)
  ( 332 :    0)  ( 333 :    0)  ( 334 :    0)  ( 335 :    0)
  ( 336 :    0)  ( 337 :    0)  ( 338 :    0)  ( 339 :    0)
  ( 340 :    0)  ( 341 :    0)  ( 342 :    0)  ( 343 :    0)
  ( 344 :    0)  ( 345 :    0)  ( 346 :    0)  ( 347 :    0)
  ( 348 :    0)  ( 349 :    0)  ( 350 :    0)  ( 351 :    0)
  ( 352 :    0)  ( 353 :    0)  ( 354 :    0)  ( 355 :    0)
  ( 356 :    0)  ( 357 :    0)  ( 358 :    0)  ( 359 :    0)
  ( 360 :    0)  ( 361 :    0)  ( 362 :    0)  ( 363 :    0)
  ( 364 :    0)  ( 365 :    0)  ( 366 :    0)  ( 367 :    0)
  ( 368 :    0)  ( 369 :    0)  ( 370 :    0)  ( 371 :    0)
  ( 372 :    0)  ( 373 :    0)  ( 374 :    0)  ( 375 :    0)
  ( 376 :    0)  ( 377 :    0)  ( 378 :    0)  ( 379 :    0)
  ( 380 :    0)  ( 381 :    0)  ( 382 :    0)  ( 383 :    0)
  ( 384 :    0)  ( 385 :    0)  ( 386 :    0)  ( 387 :    0)
  ( 388 :    0)  ( 389 :    0)  ( 390 :    0)  ( 391 :    0)
  ( 392 :    0)  ( 393 :    0)  ( 394 :    0)  ( 395 :    0)
  ( 396 :    0)  ( 397 :    0)  ( 398 :    0)  ( 399 :    0)
  ( 400 :    0)  ( 401 :    0)  ( 402 :    0)  ( 403 :    0)
  ( 404 :    0)  ( 405 :    0)  ( 406 :    0)  ( 407 :    0)
  ( 408 :    0)  ( 409 :    0)  ( 410 :    0)  ( 411 :    0)
  ( 412 :    0)  ( 413 :    0)  ( 414 :    0)  ( 415 :    0)
  ( 416 :    0)  ( 417 :    0)  ( 418 :    0)  ( 419 :    0)
  ( 420 :    0)  ( 421 :    0)  ( 422 :    0)  ( 423 :    0)
  ( 424 :    0)  ( 425 :    0)  ( 426 :    0)  ( 427 :    0)
  ( 428 :    0)  ( 429 :    0)  ( 430 :    0)  ( 431 :    0)
  ( 432 :    0)  ( 433 :    0)  ( 434 :    0)  ( 435 :    0)
  ( 436 :    0)  ( 437 :    0)  ( 438 :    0)  ( 439 :    0)
  ( 440 :    0)  ( 441 :    0)  ( 442 :    0)  ( 443 :    0)
  ( 444 :    0)  ( 445 :    0)  ( 446 :    0)  ( 447 :    0)
  ( 448 :    0)  ( 449 :    0)  ( 450 :    0)  ( 451 :    0)
  ( 452 :    0)  ( 453 :    0)  ( 454 :    0)  ( 455 :    0)
  ( 456 :    0)  ( 457 :    0)  ( 458 :    0)  ( 459 :    0)
  ( 460 :    0)  ( 461 :    0)  ( 462 :    0)  ( 463 :    0)
  ( 464 :    0)  ( 465 :    0)  ( 466 :    0)  ( 467 :    0)
  ( 468 :    0)  ( 469 :    0)  ( 470 :    0)  ( 471 :    0)
  ( 472 :    0)  ( 473 :    0)  ( 474 :    0)  ( 475 :    0)
  ( 476 :    0)  ( 477 :    0)  ( 478 :    0)  ( 479 :    0)
  ( 480 :    0)  ( 481 :    0)  ( 482 :    0)  ( 483 :    0)
  ( 484 :    0)  ( 485 :    0)  ( 486 :    0)  ( 487 :    0)
  ( 488 :    0)  ( 489 :    0)  ( 490 :    0)  ( 491 :    0)
  ( 492 :    0)  ( 493 :    0)  ( 494 :    0)  ( 495 :    0)
  ( 496 :    0)  ( 497 :    0)  ( 498 :    0)  ( 499 :    0)
  ( 500 :    0)  ( 501 :    0)  ( 502 :    0)  ( 503 :    0)
  ( 504 :    0)  ( 505 :    0)  ( 506 :    0)  ( 507 :    0)
  ( 508 :    0)  ( 509 :    0)  ( 510 :    0)  ( 511 :    0)
  ( 512 :    0)  ( 513 :    0)  ( 514 :    0)  ( 515 :    0)
  ( 516 :    0)  ( 517 :    0)  ( 518 :    0)  ( 519 :    0)
  ( 520 :    0)  ( 521 :    0)  ( 522 :    0)  ( 523 :    0)
  ( 524 :    0)  ( 525 :    0)  ( 526 :    0)  ( 527 :    0)
  ( 528 :    0)  ( 529 :    0)  ( 530 :    0)  ( 531 :    0)
  ( 532 :    0)  ( 533 :    0)  ( 534 :    0)  ( 535 :    0)
  ( 536 :    0)  ( 537 :    0)  ( 538 :    0)  ( 539 :    0)
  ( 540 :    0)  ( 541 :    0)  ( 542 :    0)  ( 543 :    0)
  ( 544 :    0)  ( 545 :    0)  ( 546 :    0)  ( 547 :    0)
  ( 548 :    0)  ( 549 :    0)  ( 550 :    0)  ( 551 :    0)
  ( 552 :    0)  ( 553 :    0)  ( 554 :    0)  ( 555 :    0)
  ( 556 :    0)  ( 557 :    0)  ( 558 :    0)  ( 559 :    0)
  ( 560 :    0)  ( 561 :    0)  ( 562 :    0)  ( 563 :    0)
  ( 564 :    0)  ( 565 :    0)  ( 566 :    0)  ( 567 :    0)
  ( 568 :    0)  ( 569 :    0)  ( 570 :    0)  ( 571 :    0)
  ( 572 :    0)  ( 573 :    0)  ( 574 :    0)  ( 575 :    0)
  ( 576 :    0)  ( 577 :    0)  ( 578 :    0)  ( 579 :    0)
  ( 580 :    0)  ( 581 :    0)  ( 582 :    0)  ( 583 :    0)
  ( 584 :    0)  ( 585 :    0)  ( 586 :    0)  ( 587 :    0)
  ( 588 :    0)  ( 589 :    0)  ( 590 :    0)  ( 591 :    0)
  ( 592 :    0)  ( 593 :    0)  ( 594 :    0)  ( 595 :    0)
  ( 596 :    0)  ( 597 :    0)  ( 598 :    0)  ( 599 :    0)
  ( 600 :    0)  ( 601 :    0)  ( 602 :    0)  ( 603 :    0)
  ( 604 :    0)  ( 605 :    0)  ( 606 :    0)  ( 607 :    0)
  ( 608 :    0)  ( 609 :    0)  ( 610 :    0)  ( 611 :    0)
  ( 612 :    0)  ( 613 :    0)  ( 614 :    0)  ( 615 :    0)
  ( 616 :    0)  ( 617 :    0)  ( 618 :    0)  ( 619 :    0)
  ( 620 :    0)  ( 621 :    0)  ( 622 :    0)  ( 623 :    0)
  ( 624 :    0)  ( 625 :    0)  ( 626 :    0)  ( 627 :    0)
  ( 628 :    0)  ( 629 :    0)  ( 630 :    0)  ( 631 :    0)
  ( 632 :    0)  ( 633 :    0)  ( 634 :    0)  ( 635 :    0)
  ( 636 :    0)  ( 637 :    0)  ( 638 :    0)  ( 639 :    0)
  ( 640 :    0)  ( 641 :    0)  ( 642 :    0)  ( 643 :    0)
  ( 644 :    0)  ( 645 :    0)  ( 646 :    0)  ( 647 :    0)
  ( 648 :    0)  ( 649 :    0)  ( 650 :    0)  ( 651 :    0)
  ( 652 :    0)  ( 653 :    0)  ( 654 :    0)  ( 655 :    0)
  ( 656 :    0)  ( 657 :    0)  ( 658 :    0)  ( 659 :    0)
  ( 660 :    0)  ( 661 :    0)  ( 662 :    0)  ( 663 :    0)
  ( 664 :    0)  ( 665 :    0)  ( 666 :    0)  ( 667 :    0)
  ( 668 :    0)  ( 669 :    0)  ( 670 :    0)  ( 671 :    0)
  ( 672 :    0)  ( 673 :    0)  ( 674 :    0)  ( 675 :    0)
  ( 676 :    0)  ( 677 :    0)  ( 678 :    0)  ( 679 :    0)
  ( 680 :    0)  ( 681 :    0)  ( 682 :    0)  ( 683 :    0)
  ( 684 :    0)  ( 685 :    0)  ( 686 :    0)  ( 687 :    0)
  ( 688 :    0)  ( 689 :    0)  ( 690 :    0)  ( 691 :    0)
  ( 692 :    0)  ( 693 :    0)  ( 694 :    0)  ( 695 :    0)
  ( 696 :    0)  ( 697 :    0)  ( 698 :    0)  ( 699 :    0)
  ( 700 :    0)  ( 701 :    0)  ( 702 :    0)  ( 703 :    0)
  ( 704 :    0)  ( 705 :    0)  ( 706 :    0)  ( 707 :    0)
  ( 708 :    0)  ( 709 :    0)  ( 710 :    0)  ( 711 :    0)
  ( 712 :    0)  ( 713 :    0)  ( 714 :    0)  ( 715 :    0)
  ( 716 :    0)  ( 717 :    0)  ( 718 :    0)  ( 719 :    0)
  ( 720 :    0)  ( 721 :    0)  ( 722 :    0)  ( 723 :    0)
  ( 724 :    0)  ( 725 :    0)  ( 726 :    0)  ( 727 :    0)
  ( 728 :    0)  ( 729 :    0)  ( 730 :    0)  ( 731 :    0)
  ( 732 :    0)  ( 733 :    0)  ( 734 :    0)  ( 735 :    0)
  ( 736 :    0)  ( 737 :    0)  ( 738 :    0)  ( 739 :    0)
  ( 740 :    0)  ( 741 :    0)  ( 742 :    0)  ( 743 :    0)
  ( 744 :    0)  ( 745 :    0)  ( 746 :    0)  ( 747 :    0)
  ( 748 :    0)  ( 749 :    0)  ( 750 :    0)  ( 751 :    0)
  ( 752 :    0)  ( 753 :    0)  ( 754 :    0)  ( 755 :    0)
  ( 756 :    0)  ( 757 :    0)  ( 758 :    0)  ( 759 :    0)
  ( 760 :    0)  ( 761 :    0)  ( 762 :    0)  ( 763 :    0)
  ( 764 :    0)  ( 765 :    0)  ( 766 :    0)  ( 767 :    0)
  ( 768 :    0)  ( 769 :    0)  ( 770 :    0)  ( 771 :    0)
  ( 772 :    0)  ( 773 :    0)  ( 774 :    0)  ( 775 :    0)
  ( 776 :    0)  ( 777 :    0)  ( 778 :    0)  ( 779 :    0)
  ( 780 :    0)  ( 781 :    0)  ( 782 :    0)  ( 783 :    0)
  ( 784 :    0)  ( 785 :    0)  ( 786 :    0)  ( 787 :    0)
  ( 788 :    0)  ( 789 :    0)  ( 790 :    0)  ( 791 :    0)
  ( 792 :    0)  ( 793 :    0)  ( 794 :    0)  ( 795 :    0)
  ( 796 :    0)  ( 797 :    0)  ( 798 :    0)  ( 799 :    0)
  ( 800 :    0)  ( 801 :    0)  ( 802 :    0)  ( 803 :    0)
  ( 804 :    0)  ( 805 :    0)  ( 806 :    0)  ( 807 :    0)
  ( 808 :    0)  ( 809 :    0)  ( 810 :    0)  ( 811 :    0)
  ( 812 :    0)  ( 813 :    0)  ( 814 :    0)  ( 815 :    0)
  ( 816 :    0)  ( 817 :    0)  ( 818 :    0)  ( 819 :    0)
  ( 820 :    0)  ( 821 :    0)  ( 822 :    0)  ( 823 :    0)
  ( 824 :    0)  ( 825 :    0)  ( 826 :    0)  ( 827 :    0)
  ( 828 :    0)  ( 829 :    0)  ( 830 :    0)  ( 831 :    0)
  ( 832 :    0)  ( 833 :    0)  ( 834 :    0)  ( 835 :    0)
  ( 836 :    0)  ( 837 :    0)  ( 838 :    0)  ( 839 :    0)
  ( 840 :    0)  ( 841 :    0)  ( 842 :    0)  ( 843 :    0)
  ( 844 :    0)  ( 845 :    0)  ( 846 :    0)  ( 847 :    0)
  ( 848 :    0)  ( 849 :    0)  ( 850 :    0)  ( 851 :    0)
  ( 852 :    0)  ( 853 :    0)  ( 854 :    0)  ( 855 :    0)
  ( 856 :    0)  ( 857 :    0)  ( 858 :    0)  ( 859 :    0)
  ( 860 :    0)  ( 861 :    0)  ( 862 :    0)  ( 863 :    0)
  ( 864 :    0)  ( 865 :    0)  ( 866 :    0)  ( 867 :    0)
  ( 868 :    0)  ( 869 :    0)  ( 870 :    0)  ( 871 :    0)
  ( 872 :    0)  ( 873 :    0)  ( 874 :    0)  ( 875 :    0)
  ( 876 :    0)  ( 877 :    0)  ( 878 :    0)  ( 879 :    0)
  ( 880 :    0)  ( 881 :    0)  ( 882 :    0)  ( 883 :    0)
  ( 884 :    0)  ( 885 :    0)  ( 886 :    0)  ( 887 :    0)
  ( 888 :    0)  ( 889 :    0)  ( 890 :    0)  ( 891 :    0)
  ( 892 :    0)  ( 893 :    0)  ( 894 :    0)  ( 895 :    0)
  ( 896 :    0)  ( 897 :    0)  ( 898 :    0)  ( 899 :    0)
  ( 900 :    0)  ( 901 :    0)  ( 902 :    0)  ( 903 :    0)
  ( 904 :    0)  ( 905 :    0)  ( 906 :    0)  ( 907 :    0)
  ( 908 :    0)  ( 909 :    0)  ( 910 :    0)  ( 911 :    0)
  ( 912 :    0)  ( 913 :    0)  ( 914 :    0)  ( 915 :    0)
  ( 916 :    0)  ( 917 :    0)  ( 918 :    0)  ( 919 :    0)
  ( 920 :    0)  ( 921 :    0)  ( 922 :    0)  ( 923 :    0)
  ( 924 :    0)  ( 925 :    0)  ( 926 :    0)  ( 927 :    0)
  ( 928 :    0)  ( 929 :    0)  ( 930 :    0)  ( 931 :    0)
  ( 932 :    0)  ( 933 :    0)  ( 934 :    0)  ( 935 :    0)
  ( 936 :    0)  ( 937 :    0)  ( 938 :    0)  ( 939 :    0)
  ( 940 :    0)  ( 941 :    0)  ( 942 :    0)  ( 943 :    0)
  ( 944 :    0)  ( 945 :    0)  ( 946 :    0)  ( 947 :    0)
  ( 948 :    0)  ( 949 :    0)  ( 950 :    0)  ( 951 :    0)
  ( 952 :    0)  ( 953 :    0)  ( 954 :    0)  ( 955 :    0)
  ( 956 :    0)  ( 957 :    0)  ( 958 :    0)  ( 959 :    0)
  ( 960 :    0)  ( 961 :    0)  ( 962 :    0)  ( 963 :    0)
  ( 964 :    0)  ( 965 :    0)  ( 966 :    0)  ( 967 :    0)
  ( 968 :    0)  ( 969 :    0)  ( 970 :    0)  ( 971 :    0)
  ( 972 :    0)  ( 973 :    0)  ( 974 :    0)  ( 975 :    0)
  ( 976 :    0)  ( 977 :    0)  ( 978 :    0)  ( 979 :    0)
  ( 980 :    0)  ( 981 :    0)  ( 982 :    0)  ( 983 :    0)
  ( 984 :    0)  ( 985 :    0)  ( 986 :    0)  ( 987 :    0)
  ( 988 :    0)  ( 989 :    0)  ( 990 :    0)  ( 991 :    0)
  ( 992 :    0)  ( 993 :    0)  ( 994 :    0)  ( 995 :    0)
  ( 996 :    0)  ( 997 :    0)  ( 998 :    0)  ( 999 :    0)
  (1000 :    0)  (1001 :    0)  (1002 :    0)  (1003 :    0)
  (1004 :    0)  (1005 :    0)  (1006 :    0)  (1007 :    0)
  (1008 :    0)  (1009 :    0)  (1010 :    0)  (1011 :    0)
  (1012 :    0)  (1013 :    0)  (1014 :    0)  (1015 :    0)
  (1016 :    0)  (1017 :    0)  (1018 :    0)  (1019 :    0)
  (1020 :    0)  (1021 :    0)  (1022 :    0)  (1023 :    0)
          ----------------------------------------------------------------------
 COLVARS| COLVAR INPUT INDEX:        1
 COLVARS| ENERGY          >>> ATOMS:                                        all!
          ----------------------------------------------------------------------

 CELL_TOP| Volume [angstrom^3]:                                         2491.262
 CELL_TOP| Vector a [angstrom    14.725     0.000     0.000    |a| =      14.725
 CELL_TOP| Vector b [angstrom    -7.362    12.752     0.000    |b| =      14.725
 CELL_TOP| Vector c [angstrom     0.000     0.000    13.267    |c| =      13.267
 CELL_TOP| Angle (b,c), alpha [degree]:                                   90.000
 CELL_TOP| Angle (a,c), beta  [degree]:                                   90.000
 CELL_TOP| Angle (a,b), gamma [degree]:                                  120.000
 CELL_TOP| Numerically orthorhombic:                                          NO

 GENERATE|  Preliminary Number of Bonds generated:                             0
 GENERATE|  Achieved consistency in connectivity generation.

 CELL| Volume [angstrom^3]:                                             2491.262
 CELL| Vector a [angstrom]:      14.725     0.000     0.000    |a| =      14.725
 CELL| Vector b [angstrom]:      -7.362    12.752     0.000    |b| =      14.725
 CELL| Vector c [angstrom]:       0.000     0.000    13.267    |c| =      13.267
 CELL| Angle (b,c), alpha [degree]:                                       90.000
 CELL| Angle (a,c), beta  [degree]:                                       90.000
 CELL| Angle (a,b), gamma [degree]:                                      120.000
 CELL| Numerically orthorhombic:                                              NO

 CELL_REF| Volume [angstrom^3]:                                         2491.262
 CELL_REF| Vector a [angstrom    14.725     0.000     0.000    |a| =      14.725
 CELL_REF| Vector b [angstrom    -7.362    12.752     0.000    |b| =      14.725
 CELL_REF| Vector c [angstrom     0.000     0.000    13.267    |c| =      13.267
 CELL_REF| Angle (b,c), alpha [degree]:                                   90.000
 CELL_REF| Angle (a,c), beta  [degree]:                                   90.000
 CELL_REF| Angle (a,b), gamma [degree]:                                  120.000
 CELL_REF| Numerically orthorhombic:                                          NO


 MOLECULE KIND INFORMATION


 All atoms are their own molecule, skipping detailed information

  HFX_INFO| Replica ID:                                                        1
  HFX_INFO| EPS_SCHWARZ:                                                 1.0E-10
  HFX_INFO| EPS_SCHWARZ_FORCES                                           1.0E-06
  HFX_INFO| EPS_STORAGE_SCALING:                                         1.0E+00
  HFX_INFO| NBINS:                                                            64
  HFX_INFO| BLOCK_SIZE:                                                        2
  HFX_INFO| FRACTION:                                               1.0000000000
  HFX_INFO| Interaction Potential:                                     TRUNCATED
  HFX_INFO| Cutoff Radius [angstrom]:                               6.0000000000
  HFX_INFO| NUMBER_OF_SHELLS:                                               AUTO
  HFX_INFO| Number of periodic shells considered:                             -1
  HFX_INFO| Number of periodic cells considered:                              75

 nspins, nimgs, gapw_xc           2           1 F 

 ####### CHECKS ON A and B #######
  E_A before:  -15928.082086040566     
  E_B before:  -15928.082782360818     
 ####### - #######
##Inside build_kohn_sham_matrix() before doing any function calls
 i). ELECTRON ONLY CALLS
 1. Electron_pw   4730.7759716268356     
 2. Electron_1c   0.0000000000000000     
 ########## After 1st poisson call pure hartree  (sum of above two quantities) ##########   4730.7759716268356     
 ########################
 1. Nuclear_pw   18117.329321087869     
 2. Nuclear_1c   0.0000000000000000     
 1. Hartree_pw   6509.2964117290603     
 2. Hartree_1c   0.0000000000000000     
 Regular: Before call to qs_vxc Regular_exc, exc1  -2006.6767039640781        0.0000000000000000     
 Regular: After call to qs_vxc_create Regular_exc, exc1   0.0000000000000000        0.0000000000000000     

  HFX_MEM_INFO| Est. max. program size before HFX [MiB]:                    1175
  HFX_MEM_INFO| Number of cart. primitive ERI's calculated:      944639650033648
  HFX_MEM_INFO| Number of sph. ERI's calculated:                  15702565352401
  HFX_MEM_INFO| Number of sph. ERI's stored in-core:                770645707303
  HFX_MEM_INFO| Number of sph. ERI's stored on disk:                           0
  HFX_MEM_INFO| Number of sph. ERI's calculated on the fly:       14931919645098
  HFX_MEM_INFO| Total memory consumption ERI's RAM [MiB]:                1870914
  HFX_MEM_INFO| Whereof max-vals [MiB]:                                       25
  HFX_MEM_INFO| Total compression factor ERI's RAM:                         3.14
  HFX_MEM_INFO| Total memory consumption ERI's disk [MiB]:                     0
  HFX_MEM_INFO| Total compression factor ERI's disk:                        0.00
  HFX_MEM_INFO| Size of density/Fock matrix [MiB]:                           168
  HFX_MEM_INFO| Size of buffers [MiB]:                                         1
  HFX_MEM_INFO| Number of periodic image cells considered:                    75
  HFX_MEM_INFO| Est. max. program size after HFX  [MiB]:                    3173

 iv). EXCHANGE ENERGY   -1876.2832425104643     
 v). POTENTIAL ENERGY FROM CORE HAMILTONIAN   -1288.7820896211915     
 vi). KINETIC ENERGY    9282.6130161402143     
 vii). SELF ENERGY   -28423.466272274716     
      
 E_NUC is   -10306.136951186847     
      
IN build_kohn_sham_matrix() CALLING qs_ks_atom(),updates single atom contributions due to gapw
Inside build_kohn_sham_matrix() after doing all function calls and evaluating energy
 CHECK ON A IS DONE, E_A after passing modified PA_hat density:  -15796.622176537097     
##Inside build_kohn_sham_matrix() before doing any function calls
 i). ELECTRON ONLY CALLS
 1. Electron_pw   4730.7687814055680     
 2. Electron_1c   0.0000000000000000     
 ########## After 1st poisson call pure hartree  (sum of above two quantities) ##########   4730.7687814055680     
 ########################
 1. Nuclear_pw   18117.329321087869     
 2. Nuclear_1c   0.0000000000000000     
 1. Hartree_pw   6509.2963567033294     
 2. Hartree_1c   0.0000000000000000     
 Regular: Before call to qs_vxc Regular_exc, exc1   0.0000000000000000        0.0000000000000000     
 Regular: After call to qs_vxc_create Regular_exc, exc1   0.0000000000000000        0.0000000000000000     
 iv). EXCHANGE ENERGY   -1876.2846067252635     
 v). POTENTIAL ENERGY FROM CORE HAMILTONIAN   -1288.7818873735650     
 vi). KINETIC ENERGY    9282.6128110284008     
 vii). SELF ENERGY   -28423.466272274716     
      
 E_NUC is   -10306.136951186847     
      
IN build_kohn_sham_matrix() CALLING qs_ks_atom(),updates single atom contributions due to gapw
Inside build_kohn_sham_matrix() after doing all function calls and evaluating energy
 CHECK ON B IS DONE, E_B after passing modified PB_hat density:  -15796.623598641812     
 DOING ANTI-SYMMETRIC PART OF VAB
##Inside build_kohn_sham_matrix() before doing any function calls
 i). ELECTRON ONLY CALLS
 1. Electron_pw   1.2835923295214947E-004
 2. Electron_1c   0.0000000000000000     
 ########## After 1st poisson call pure hartree  (sum of above two quantities) ##########   1.2835923295214947E-004
 ########################
 1. Nuclear_pw   18117.329321087869     
 2. Nuclear_1c   0.0000000000000000     
 1. Hartree_pw   18117.329499724634     
 2. Hartree_1c   0.0000000000000000     
 Regular: Before call to qs_vxc Regular_exc, exc1   0.0000000000000000        0.0000000000000000     
 Regular: After call to qs_vxc_create Regular_exc, exc1   0.0000000000000000        0.0000000000000000     
 iv). EXCHANGE ENERGY   -3.3539211433802556E-002
 v). POTENTIAL ENERGY FROM CORE HAMILTONIAN   -3.7292079480843576E-004
 vi). KINETIC ENERGY   -2.4365977902493108E-003
 vii). SELF ENERGY   -28423.466272274716     
      
 E_NUC is   -10306.136951186847     
      
IN build_kohn_sham_matrix() CALLING qs_ks_atom(),updates single atom contributions due to gapw
Inside build_kohn_sham_matrix() after doing all function calls and evaluating energy
 DOING SYMMETRIC PART OF VAB
##Inside build_kohn_sham_matrix() before doing any function calls
 i). ELECTRON ONLY CALLS
 1. Electron_pw   2.5345778661664538     
 2. Electron_1c   0.0000000000000000     
 ########## After 1st poisson call pure hartree  (sum of above two quantities) ##########   2.5345778661664538     
 ########################
 ehartree, ehartree_1c after multiplying with DTPROD/DHPROD   109.49444724815650        0.0000000000000000     
 dtprod, dhprod are   1.0000000001167120        2.3148003667418326E-002
 J2_AB is    109.49444724815650     
 1. Nuclear_pw   18117.329321087869     
 2. Nuclear_1c   0.0000000000000000     
 1. Hartree_pw   17741.685997440429     
 2. Hartree_1c   0.0000000000000000     
 Regular: Before call to qs_vxc Regular_exc, exc1   0.0000000000000000        0.0000000000000000     
 Regular: After call to qs_vxc_create Regular_exc, exc1   0.0000000000000000        0.0000000000000000     
 iv). EXCHANGE ENERGY   -1.0389979742426125     
 v). POTENTIAL ENERGY FROM CORE HAMILTONIAN   -29.825528195793908     
 vi). KINETIC ENERGY    214.84998024176659     
 vii). SELF ENERGY   -28423.466272274716     
      
 E_NUC is   -10306.136951186847     
      
IN build_kohn_sham_matrix() CALLING qs_ks_atom(),updates single atom contributions due to gapw
 ########################
 #########  ET  #########
 ------------------------
 E_NUC  -10306.136951186847     
 HAA <a|H|a>  -5490.4852253502522     
 HBB <b|H|b>  -5490.4866474549690     
             
 <a|H1|b>  -193.15344949017759     
 <a|H2|b>   66.058357580459614     
 ...<a|J2|b>   109.49444724815650     
 ...<a|K2|b>  -43.436089667696898     
 HAB <a|H|b>  -127.09509190971798     
 SAB   2.3148003670119974E-002
 VAB   1.4853561429636279E-003
  VAB in different units 
 ------------------------
          4.0418596169877190E-002 eV
          325.99799193090934      1/cm
         0.93207504412179465      kcal/mol
          3.8998019846055891      kJ/mol
          9773173930403.1465      Hertz
 ------------------------
 ------------------------
 E+  -5490.4844240223338     
 E-  -5490.4873884128056     
 (E+ - E-)/2   1.4821952362520257E-003
          4.0332583524013019E-002 eV
          325.30425309558382      1/cm
         0.93009154523054349      kcal/mol
          3.8915030252445941      kJ/mol
          9752376163337.9160      Hertz
 ------------------------
 ------------------------
Inside build_kohn_sham_matrix() after doing all function calls and evaluating energy
 NO FORCE_EVAL section calculated the dipole

 ENERGY| Total FORCE_EVAL ( MIXED ) energy (a.u.):             0.000696320252246


 -------------------------------------------------------------------------------
 -                                                                             -
 -                                DBCSR STATISTICS                             -
 -                                                                             -
 -------------------------------------------------------------------------------
 COUNTER                                    TOTAL       BLAS       SMM       ACC
 flops     8 x     6 x     6               186624     100.0%      0.0%      0.0%
 flops    38 x    38 x    38               219488     100.0%      0.0%      0.0%
 flops    39 x    39 x    39               237276     100.0%      0.0%      0.0%
 flops     8 x     7 x     7               254016     100.0%      0.0%      0.0%
 flops    19 x     6 x     6               295488     100.0%      0.0%      0.0%
 flops    19 x     7 x     7               402192     100.0%      0.0%      0.0%
 flops    38 x    38 x    64              3696640     100.0%      0.0%      0.0%
 flops    38 x    64 x    38              3696640     100.0%      0.0%      0.0%
 flops    64 x    38 x    38              3696640     100.0%      0.0%      0.0%
 flops    32 x    38 x    38              3881472     100.0%      0.0%      0.0%
 flops    38 x    32 x    38              3881472     100.0%      0.0%      0.0%
 flops    38 x    38 x    32              3881472     100.0%      0.0%      0.0%
 flops    39 x    39 x    64              3893760     100.0%      0.0%      0.0%
 flops    39 x    64 x    39              3893760     100.0%      0.0%      0.0%
 flops    64 x    39 x    39              3893760     100.0%      0.0%      0.0%
 flops    32 x    39 x    39              4088448     100.0%      0.0%      0.0%
 flops    39 x    32 x    39              4088448     100.0%      0.0%      0.0%
 flops    39 x    39 x    32              4088448     100.0%      0.0%      0.0%
 flops   100 x    38 x    38             10396800     100.0%      0.0%      0.0%
 flops    38 x    38 x   100             10396800     100.0%      0.0%      0.0%
 flops   100 x    39 x    39             10951200     100.0%      0.0%      0.0%
 flops    39 x    39 x   100             10951200     100.0%      0.0%      0.0%
 flops   108 x    38 x    38             11228544     100.0%      0.0%      0.0%
 flops    38 x    38 x   108             11228544     100.0%      0.0%      0.0%
 flops   108 x    39 x    39             11827296     100.0%      0.0%      0.0%
 flops    39 x    39 x   108             11827296     100.0%      0.0%      0.0%
 flops   105 x    38 x    38             36388800     100.0%      0.0%      0.0%
 flops    38 x    38 x   105             36388800     100.0%      0.0%      0.0%
 flops   105 x    39 x    39             38329200     100.0%      0.0%      0.0%
 flops    39 x    39 x   105             38329200     100.0%      0.0%      0.0%
 flops    64 x    64 x    38             62259200     100.0%      0.0%      0.0%
 flops    38 x    64 x    64             62259200     100.0%      0.0%      0.0%
 flops    64 x    38 x    64             62259200     100.0%      0.0%      0.0%
 flops    64 x    64 x    39             63897600     100.0%      0.0%      0.0%
 flops    39 x    64 x    64             63897600     100.0%      0.0%      0.0%
 flops    64 x    39 x    64             63897600     100.0%      0.0%      0.0%
 flops    32 x    38 x    64             65372160     100.0%      0.0%      0.0%
 flops    32 x    64 x    38             65372160     100.0%      0.0%      0.0%
 flops    38 x    32 x    64             65372160     100.0%      0.0%      0.0%
 flops    38 x    64 x    32             65372160     100.0%      0.0%      0.0%
 flops    64 x    32 x    38             65372160     100.0%      0.0%      0.0%
 flops    64 x    38 x    32             65372160     100.0%      0.0%      0.0%
 flops    32 x    39 x    64             67092480     100.0%      0.0%      0.0%
 flops    32 x    64 x    39             67092480     100.0%      0.0%      0.0%
 flops    39 x    32 x    64             67092480     100.0%      0.0%      0.0%
 flops    39 x    64 x    32             67092480     100.0%      0.0%      0.0%
 flops    64 x    32 x    39             67092480     100.0%      0.0%      0.0%
 flops    64 x    39 x    32             67092480     100.0%      0.0%      0.0%
 flops    32 x    32 x    38             68640768     100.0%      0.0%      0.0%
 flops    32 x    38 x    32             68640768     100.0%      0.0%      0.0%
 flops    38 x    32 x    32             68640768     100.0%      0.0%      0.0%
 flops    32 x    32 x    39             70447104     100.0%      0.0%      0.0%
 flops    32 x    39 x    32             70447104     100.0%      0.0%      0.0%
 flops    39 x    32 x    32             70447104     100.0%      0.0%      0.0%
 flops   100 x    38 x   100            109440000     100.0%      0.0%      0.0%
 flops   100 x    39 x   100            112320000     100.0%      0.0%      0.0%
 flops   100 x    38 x   108            118195200     100.0%      0.0%      0.0%
 flops   108 x    38 x   100            118195200     100.0%      0.0%      0.0%
 flops   100 x    39 x   108            121305600     100.0%      0.0%      0.0%
 flops   108 x    39 x   100            121305600     100.0%      0.0%      0.0%
 flops   108 x    38 x   108            127650816     100.0%      0.0%      0.0%
 flops   108 x    39 x   108            131010048     100.0%      0.0%      0.0%
 flops   100 x    38 x    64            175104000     100.0%      0.0%      0.0%
 flops   100 x    64 x    38            175104000     100.0%      0.0%      0.0%
 flops    38 x    64 x   100            175104000     100.0%      0.0%      0.0%
 flops    64 x    38 x   100            175104000     100.0%      0.0%      0.0%
 flops   100 x    39 x    64            179712000     100.0%      0.0%      0.0%
 flops   100 x    64 x    39            179712000     100.0%      0.0%      0.0%
 flops    39 x    64 x   100            179712000     100.0%      0.0%      0.0%
 flops    64 x    39 x   100            179712000     100.0%      0.0%      0.0%
 flops    32 x    38 x   100            183859200     100.0%      0.0%      0.0%
 flops   100 x    32 x    38            183859200     100.0%      0.0%      0.0%
 flops   100 x    38 x    32            183859200     100.0%      0.0%      0.0%
 flops    38 x    32 x   100            183859200     100.0%      0.0%      0.0%
 flops    32 x    39 x   100            188697600     100.0%      0.0%      0.0%
 flops   100 x    32 x    39            188697600     100.0%      0.0%      0.0%
 flops   100 x    39 x    32            188697600     100.0%      0.0%      0.0%
 flops    39 x    32 x   100            188697600     100.0%      0.0%      0.0%
 flops   108 x    38 x    64            189112320     100.0%      0.0%      0.0%
 flops   108 x    64 x    38            189112320     100.0%      0.0%      0.0%
 flops    38 x    64 x   108            189112320     100.0%      0.0%      0.0%
 flops    64 x    38 x   108            189112320     100.0%      0.0%      0.0%
 flops   108 x    39 x    64            194088960     100.0%      0.0%      0.0%
 flops   108 x    64 x    39            194088960     100.0%      0.0%      0.0%
 flops    39 x    64 x   108            194088960     100.0%      0.0%      0.0%
 flops    64 x    39 x   108            194088960     100.0%      0.0%      0.0%
 flops    32 x    38 x   108            198567936     100.0%      0.0%      0.0%
 flops   108 x    32 x    38            198567936     100.0%      0.0%      0.0%
 flops   108 x    38 x    32            198567936     100.0%      0.0%      0.0%
 flops    38 x    32 x   108            198567936     100.0%      0.0%      0.0%
 flops    32 x    39 x   108            203793408     100.0%      0.0%      0.0%
 flops   108 x    32 x    39            203793408     100.0%      0.0%      0.0%
 flops   108 x    39 x    32            203793408     100.0%      0.0%      0.0%
 flops    39 x    32 x   108            203793408     100.0%      0.0%      0.0%
 flops     8 x     7 x     8            235146240     100.0%      0.0%      0.0%
 flops     8 x     6 x     8            241864704     100.0%      0.0%      0.0%
 flops     8 x     8 x    38            256877568     100.0%      0.0%      0.0%
 flops     8 x     8 x    39            263637504     100.0%      0.0%      0.0%
 flops    19 x     7 x     8            372314880     100.0%      0.0%      0.0%
 flops     8 x     7 x    19            372314880     100.0%      0.0%      0.0%
 flops    19 x     6 x     8            382952448     100.0%      0.0%      0.0%
 flops     8 x     6 x    19            382952448     100.0%      0.0%      0.0%
 flops   105 x    38 x   100            383040000     100.0%      0.0%      0.0%
 flops   100 x    38 x   105            383040000     100.0%      0.0%      0.0%
 flops   105 x    39 x   100            393120000     100.0%      0.0%      0.0%
 flops   100 x    39 x   105            393120000     100.0%      0.0%      0.0%
 flops    19 x     8 x    38            404227584     100.0%      0.0%      0.0%
 flops     8 x    19 x    38            404227584     100.0%      0.0%      0.0%
 flops   105 x    38 x   108            413683200     100.0%      0.0%      0.0%
 flops   108 x    38 x   105            413683200     100.0%      0.0%      0.0%
 flops    19 x     8 x    39            414865152     100.0%      0.0%      0.0%
 flops     8 x    19 x    39            414865152     100.0%      0.0%      0.0%
 flops   105 x    39 x   108            424569600     100.0%      0.0%      0.0%
 flops   108 x    39 x   105            424569600     100.0%      0.0%      0.0%
 flops     8 x    32 x    32            445906944     100.0%      0.0%      0.0%
 flops    19 x     7 x    19            589498560     100.0%      0.0%      0.0%
 flops    19 x     6 x    19            606341376     100.0%      0.0%      0.0%
 flops   105 x    64 x    38            612864000     100.0%      0.0%      0.0%
 flops   105 x    38 x    64            612864000     100.0%      0.0%      0.0%
 flops    38 x    64 x   105            612864000     100.0%      0.0%      0.0%
 flops    64 x    38 x   105            612864000     100.0%      0.0%      0.0%
 flops   105 x    64 x    39            628992000     100.0%      0.0%      0.0%
 flops   105 x    39 x    64            628992000     100.0%      0.0%      0.0%
 flops    39 x    64 x   105            628992000     100.0%      0.0%      0.0%
 flops    64 x    39 x   105            628992000     100.0%      0.0%      0.0%
 flops   105 x    32 x    38            643507200     100.0%      0.0%      0.0%
 flops    32 x    38 x   105            643507200     100.0%      0.0%      0.0%
 flops   105 x    38 x    32            643507200     100.0%      0.0%      0.0%
 flops    38 x    32 x   105            643507200     100.0%      0.0%      0.0%
 flops    19 x    19 x    38            645953184     100.0%      0.0%      0.0%
 flops   105 x    32 x    39            660441600     100.0%      0.0%      0.0%
 flops    32 x    39 x   105            660441600     100.0%      0.0%      0.0%
 flops   105 x    39 x    32            660441600     100.0%      0.0%      0.0%
 flops    39 x    32 x   105            660441600     100.0%      0.0%      0.0%
 flops    19 x    19 x    39            662951952     100.0%      0.0%      0.0%
 flops    19 x    32 x    32            706019328     100.0%      0.0%      0.0%
 flops   105 x    38 x   105           1340640000     100.0%      0.0%      0.0%
 flops   105 x    39 x   105           1375920000     100.0%      0.0%      0.0%
 flops    64 x    64 x    64           2097152000     100.0%      0.0%      0.0%
 flops    64 x    64 x    32           2202009600     100.0%      0.0%      0.0%
 flops    32 x    64 x    64           2202009600     100.0%      0.0%      0.0%
 flops    64 x    32 x    64           2202009600     100.0%      0.0%      0.0%
 flops    32 x    32 x    64           2312110080     100.0%      0.0%      0.0%
 flops    32 x    64 x    32           2312110080     100.0%      0.0%      0.0%
 flops    64 x    32 x    32           2312110080     100.0%      0.0%      0.0%
 flops    32 x    32 x    32           2427715584     100.0%      0.0%      0.0%
 flops   100 x    64 x   100           3686400000     100.0%      0.0%      0.0%
 flops   100 x    32 x   100           3870720000     100.0%      0.0%      0.0%
 flops   100 x    64 x   108           3981312000     100.0%      0.0%      0.0%
 flops   108 x    64 x   100           3981312000     100.0%      0.0%      0.0%
 flops   100 x    32 x   108           4180377600     100.0%      0.0%      0.0%
 flops   108 x    32 x   100           4180377600     100.0%      0.0%      0.0%
 flops   108 x    64 x   108           4299816960     100.0%      0.0%      0.0%
 flops   108 x    32 x   108           4514807808     100.0%      0.0%      0.0%
 flops    64 x    64 x   100           5898240000     100.0%      0.0%      0.0%
 flops   100 x    64 x    64           5898240000     100.0%      0.0%      0.0%
 flops    32 x    64 x   100           6193152000     100.0%      0.0%      0.0%
 flops   100 x    32 x    64           6193152000     100.0%      0.0%      0.0%
 flops   100 x    64 x    32           6193152000     100.0%      0.0%      0.0%
 flops    64 x    32 x   100           6193152000     100.0%      0.0%      0.0%
 flops    64 x    64 x   108           6370099200     100.0%      0.0%      0.0%
 flops   108 x    64 x    64           6370099200     100.0%      0.0%      0.0%
 flops    32 x    32 x   100           6502809600     100.0%      0.0%      0.0%
 flops   100 x    32 x    32           6502809600     100.0%      0.0%      0.0%
 flops    32 x    64 x   108           6688604160     100.0%      0.0%      0.0%
 flops   108 x    32 x    64           6688604160     100.0%      0.0%      0.0%
 flops   108 x    64 x    32           6688604160     100.0%      0.0%      0.0%
 flops    64 x    32 x   108           6688604160     100.0%      0.0%      0.0%
 flops    32 x    32 x   108           7023034368     100.0%      0.0%      0.0%
 flops   108 x    32 x    32           7023034368     100.0%      0.0%      0.0%
 flops     8 x     8 x    64           8652718080     100.0%      0.0%      0.0%
 flops     8 x     8 x    32           9085353984     100.0%      0.0%      0.0%
 flops   105 x    64 x   100          12902400000     100.0%      0.0%      0.0%
 flops   100 x    64 x   105          12902400000     100.0%      0.0%      0.0%
 flops   105 x    32 x   100          13547520000     100.0%      0.0%      0.0%
 flops   100 x    32 x   105          13547520000     100.0%      0.0%      0.0%
 flops    19 x     8 x    64          13616087040     100.0%      0.0%      0.0%
 flops     8 x    19 x    64          13616087040     100.0%      0.0%      0.0%
 flops   105 x    64 x   108          13934592000     100.0%      0.0%      0.0%
 flops   108 x    64 x   105          13934592000     100.0%      0.0%      0.0%
 flops    19 x     8 x    32          14296891392     100.0%      0.0%      0.0%
 flops     8 x    19 x    32          14296891392     100.0%      0.0%      0.0%
 flops   105 x    32 x   108          14631321600     100.0%      0.0%      0.0%
 flops   108 x    32 x   105          14631321600     100.0%      0.0%      0.0%
 flops    64 x    64 x   105          20643840000     100.0%      0.0%      0.0%
 flops   105 x    64 x    64          20643840000     100.0%      0.0%      0.0%
 flops   105 x    64 x    32          21676032000     100.0%      0.0%      0.0%
 flops   105 x    32 x    64          21676032000     100.0%      0.0%      0.0%
 flops    32 x    64 x   105          21676032000     100.0%      0.0%      0.0%
 flops    64 x    32 x   105          21676032000     100.0%      0.0%      0.0%
 flops    19 x    19 x    64          21758423040     100.0%      0.0%      0.0%
 flops    32 x    32 x   105          22759833600     100.0%      0.0%      0.0%
 flops   105 x    32 x    32          22759833600     100.0%      0.0%      0.0%
 flops    19 x    19 x    32          22846344192     100.0%      0.0%      0.0%
 flops   105 x    64 x   105          45158400000     100.0%      0.0%      0.0%
 flops   105 x    32 x   105          47416320000     100.0%      0.0%      0.0%
 flops     8 x    32 x     8          99325771776     100.0%      0.0%      0.0%
 flops    19 x    32 x     8         157265805312     100.0%      0.0%      0.0%
 flops     8 x    32 x    19         157265805312     100.0%      0.0%      0.0%
 flops    19 x    32 x    19         249004191744     100.0%      0.0%      0.0%
 flops inhomo. stacks                           0       0.0%      0.0%      0.0%
 flops total                         1.343846E+12     100.0%      0.0%      0.0%
 flops max/rank                      2.160631E+09     100.0%      0.0%      0.0%
 matmuls inhomo. stacks                         0       0.0%      0.0%      0.0%
 matmuls total                           79555248     100.0%      0.0%      0.0%
 number of processed stacks               5200128     100.0%      0.0%      0.0%
 average stack size                                    15.3       0.0       0.0
 marketing flops                     1.560962E+12
 -------------------------------------------------------------------------------
 # multiplications                             74
 max memory usage/rank             224.034816E+06
 # max total images/rank                        1
 # max 3D layers                                1
 # MPI messages exchanged                 4698112
 MPI messages size (bytes):
  total size                       188.917907E+09
  min size                           0.000000E+00
  max size                          93.312000E+03
  average size                      40.211453E+03
 MPI breakdown and total messages size (bytes):
             size <=      128              376960                        0
       128 < size <=     8192              276024               2261188608
      8192 < size <=    32768             2223692              57029120736
     32768 < size <=   131072             1821436             129627596160
    131072 < size <=  4194304                   0                        0
   4194304 < size <= 16777216                   0                        0
  16777216 < size                               0                        0
 -------------------------------------------------------------------------------

 MEMORY| Estimated peak process memory [MiB]                                3389

 -------------------------------------------------------------------------------
 -                                                                             -
 -                         MESSAGE PASSING PERFORMANCE                         -
 -                                                                             -
 -------------------------------------------------------------------------------

 ROUTINE             CALLS      AVE VOLUME [Bytes]
 MP_Group               59
 MP_Bcast             5757                 105176.
 MP_Allreduce         1258                 191442.
 MP_Sync               424
 MP_Alltoall          1336               43723579.
 MP_ISendRecv       182094                   6527.
 MP_Wait            204322
 MP_comm_split           5
 MP_ISend            14096                  42908.
 MP_IRecv            21848                  27668.
 MP_Recv               168                 857088.
 MP_Memory            2568
 -------------------------------------------------------------------------------


 -------------------------------------------------------------------------------
 -                                                                             -
 -                           R E F E R E N C E S                               -
 -                                                                             -
 -------------------------------------------------------------------------------
 
 CP2K version 6.1, the CP2K developers group (2018).
 CP2K is freely available from https://www.cp2k.org/ .

 Schuett, Ole; Messmer, Peter; Hutter, Juerg; VandeVondele, Joost. 
 Electronic Structure Calculations on Graphics Processing Units, John Wiley & Sons, Ltd, 173-190 (2016). 
 GPU-Accelerated Sparse Matrix-Matrix Multiplication for Linear Scaling Density Functional Theory.
 http://dx.doi.org/10.1002/9781118670712.ch8


 Borstnik, U; VandeVondele, J; Weber, V; Hutter, J. 
 PARALLEL COMPUTING, 40 (5-6), 47-58 (2014). 
 Sparse matrix multiplication: The distributed block-compressed sparse
 row library.
 http://dx.doi.org/10.1016/j.parco.2014.03.012


 Hutter, J; Iannuzzi, M; Schiffmann, F; VandeVondele, J. 
 WILEY INTERDISCIPLINARY REVIEWS-COMPUTATIONAL MOLECULAR SCIENCE, 4 (1), 15-25 (2014). 
 CP2K: atomistic simulations of condensed matter systems.
 http://dx.doi.org/10.1002/wcms.1159


 Guidon, M; Hutter, J; VandeVondele, J. 
 JOURNAL OF CHEMICAL THEORY AND COMPUTATION, 5 (11), 3010-3021 (2009). 
 Robust Periodic Hartree-Fock Exchange for Large-Scale Simulations Using
 Gaussian Basis Sets.
 http://dx.doi.org/10.1021/ct900494g


 Guidon, M; Schiffmann, F; Hutter, J; VandeVondele, J. 
 JOURNAL OF CHEMICAL PHYSICS, 128 (21), 214104 (2008). 
 Ab initio molecular dynamics using hybrid density functionals.
 http://dx.doi.org/10.1063/1.2931945


 Krack, M. 
 THEORETICAL CHEMISTRY ACCOUNTS, 114 (1-3), 145-152 (2005). 
 Pseudopotentials for H to Kr optimized for gradient-corrected
 exchange-correlation functionals.
 http://dx.doi.org/10.1007/s00214-005-0655-y


 VandeVondele, J; Krack, M; Mohamed, F; Parrinello, M; Chassaing, T;
 Hutter, J. COMPUTER PHYSICS COMMUNICATIONS, 167 (2), 103-128 (2005). 
 QUICKSTEP: Fast and accurate density functional calculations using a
 mixed Gaussian and plane waves approach.
 http://dx.doi.org/10.1016/j.cpc.2004.12.014


 Frigo, M; Johnson, SG. 
 PROCEEDINGS OF THE IEEE, 93 (2), 216-231 (2005). 
 The design and implementation of FFTW3.
 http://dx.doi.org/10.1109/JPROC.2004.840301


 VandeVondele, J; Hutter, J. 
 JOURNAL OF CHEMICAL PHYSICS, 118 (10), 4365-4369 (2003). 
 An efficient orbital transformation method for electronic structure
 calculations.
 http://dx.doi.org/10.1063/1.1543154


 Hartwigsen, C; Goedecker, S; Hutter, J. 
 PHYSICAL REVIEW B, 58 (7), 3641-3662 (1998). 
 Relativistic separable dual-space Gaussian pseudopotentials from H to Rn.
 http://dx.doi.org/10.1103/PhysRevB.58.3641


 Dudarev, SL; Botton, GA; Savrasov, SY; Humphreys, CJ; Sutton, AP. 
 PHYSICAL REVIEW B, 57 (3), 1505-1509 (1998). 
 Electron-energy-loss spectra and the structural stability of
 nickel oxide: An LSDA+U study.
 http://dx.doi.org/10.1103/PhysRevB.57.1505


 Lippert, G; Hutter, J; Parrinello, M. 
 MOLECULAR PHYSICS, 92 (3), 477-487 (1997). 
 A hybrid Gaussian and plane wave density functional scheme.
 http://dx.doi.org/10.1080/002689797170220


 Dudarev, SL; Manh, DN; Sutton, AP. 
 PHILOSOPHICAL MAGAZINE B, 75 (5), 613-628 (1997). 
 Effect of Mott-Hubbard correlations on the electronic
 structure and structural stability of uranium dioxide.
 http://dx.doi.org/10.1080/13642819708202343


 Goedecker, S; Teter, M; Hutter, J. 
 PHYSICAL REVIEW B, 54 (3), 1703-1710 (1996). 
 Separable dual-space Gaussian pseudopotentials.
 http://dx.doi.org/10.1103/PhysRevB.54.1703


 BECKE, AD. PHYSICAL REVIEW A, 38 (6), 3098-3100 (1988). 
 DENSITY-FUNCTIONAL EXCHANGE-ENERGY APPROXIMATION WITH CORRECT
 ASYMPTOTIC-BEHAVIOR.
 http://dx.doi.org/10.1103/PhysRevA.38.3098


 LEE, CT; YANG, WT; PARR, RG. 
 PHYSICAL REVIEW B, 37 (2), 785-789 (1988). 
 DEVELOPMENT OF THE COLLE-SALVETTI CORRELATION-ENERGY FORMULA INTO A
 FUNCTIONAL OF THE ELECTRON-DENSITY.
 http://dx.doi.org/10.1103/PhysRevB.37.785


 -------------------------------------------------------------------------------
 -                                                                             -
 -                                T I M I N G                                  -
 -                                                                             -
 -------------------------------------------------------------------------------
 SUBROUTINE                       CALLS  ASD         SELF TIME        TOTAL TIME
                                MAXIMUM       AVERAGE  MAXIMUM  AVERAGE  MAXIMUM
 CP2K                                 1  1.0    42.05    53.18 68144.38 68144.40
 qs_ks_update_qs_env                  8  3.5     0.00     0.00 68075.55 68077.59
 rebuild_ks_matrix                    6  4.0     0.00     0.00 68075.55 68077.59
 qs_ks_build_kohn_sham_matrix         6  5.0     2.87     4.91 68075.55 68077.59
 hfx_ks_matrix                        4  5.0     2.98     5.04 68071.51 68071.53
 integrate_four_center                4  6.0     0.20     0.63 68068.53 68071.48
 integrate_four_center_main           4  7.0     0.00     0.01 65040.63 67606.40
 integrate_four_center_bin          256  8.0 65040.62 67606.40 65040.62 67606.40
 mp_sync                            424 11.7  3021.57  5872.23  3021.57  5872.23
 -------------------------------------------------------------------------------

 The number of warnings for this run is : 2
 
 -------------------------------------------------------------------------------
  **** **** ******  **  PROGRAM ENDED AT                 2019-08-16 12:17:46.821
 ***** ** ***  *** **   PROGRAM RAN ON            cpn-u22-23.cbls.ccr.buffalo.ed
 **    ****   ******    PROGRAM RAN BY                                  pavankum
 ***** **    ** ** **   PROGRAM PROCESS ID                                 46575
  **** **  *******  **  PROGRAM STOPPED IN /projects/academic/mdupuis2/pavan/VAB
                                           _calculation/results_for_paper/8.Hema
                                           tite_dzv/mixed
