 DBCSR| Multiplication driver                                               BLAS
 DBCSR| Multrec recursion limit                                              512
 DBCSR| Multiplication stack size                                           1000
 DBCSR| Maximum elements for images                                    UNLIMITED
 DBCSR| Multiplicative factor virtual images                                   1
 DBCSR| Multiplication size stacks                                             3
 DBCSR| Number of 3D layers                                               SINGLE
 DBCSR| Use MPI memory allocation                                              T
 DBCSR| Use RMA algorithm                                                      F
 DBCSR| Use Communication thread                                               T
 DBCSR| Communication thread load                                             87


  **** **** ******  **  PROGRAM STARTED AT               2019-08-08 12:46:28.063
 ***** ** ***  *** **   PROGRAM STARTED ON        cpn-p28-34.cbls.ccr.buffalo.ed
 **    ****   ******    PROGRAM STARTED BY                              pavankum
 ***** **    ** ** **   PROGRAM PROCESS ID                                 83063
  **** **  *******  **  PROGRAM STARTED IN /projects/academic/mdupuis2/pavan/VAB
                                           _calculation/results_for_paper/3.1D_F
                                           e_7units/blyp_plusU8/point_0.7

 CP2K| version string:                                          CP2K version 6.1
 CP2K| source code revision number:                                    svn:18464
 CP2K| cp2kflags: libint fftw3 libxc parallel mpi3 scalapack libderiv_max_am1=5 
 CP2K|            libint_max_am=6
 CP2K| is freely available from                            https://www.cp2k.org/
 CP2K| Program compiled at                          Fri Nov 30 14:17:09 EST 2018
 CP2K| Program compiled on                       srv-p22-12.cbls.ccr.buffalo.edu
 CP2K| Program compiled for                                                local
 CP2K| Data directory path    /projects/academic/mdupuis2/pavan/cp2k/cp2k-6.1/da
 CP2K| Input file name                                                 input.inp

 GLOBAL| Force Environment number                                              1
 GLOBAL| Basis set file name            /projects/academic/mdupuis2/pavan/BASIS_
 GLOBAL| Potential file name            /projects/academic/mdupuis2/pavan/POTENT
 GLOBAL| MM Potential file name                                     MM_POTENTIAL
 GLOBAL| Coordinate file name                             intermediate_point.xyz
 GLOBAL| Method name                                                        CP2K
 GLOBAL| Project name                                                      p_fe_
 GLOBAL| Preferred FFT library                                             FFTW3
 GLOBAL| Preferred diagonalization lib.                                       SL
 GLOBAL| Run type                                                         ENERGY
 GLOBAL| All-to-all communication in single precision                          F
 GLOBAL| FFTs using library dependent lengths                                  T
 GLOBAL| Global print level                                               MEDIUM
 GLOBAL| Total number of message passing processes                            40
 GLOBAL| Number of threads for this process                                    1
 GLOBAL| This output is from process                                           0
 GLOBAL| CPU model name :  Intel(R) Xeon(R) CPU E5-2650 v3 @ 2.30GHz

 MEMORY| system memory details [Kb]
 MEMORY|                        rank 0           min           max       average
 MEMORY| MemTotal             65553524      65553524      65684716      65619120
 MEMORY| MemFree              60226820      60226820      60362760      60294790
 MEMORY| Buffers                502628        502628        505808        504218
 MEMORY| Cached                 716864        716864        719536        718200
 MEMORY| Slab                   428620        424556        428620        426588
 MEMORY| SReclaimable           257764        257764        259244        258504
 MEMORY| MemLikelyFree        61704076      61704076      61847348      61775712


 *** Fundamental physical constants (SI units) ***

 *** Literature: B. J. Mohr and B. N. Taylor,
 ***             CODATA recommended values of the fundamental physical
 ***             constants: 2006, Web Version 5.1
 ***             http://physics.nist.gov/constants

 Speed of light in vacuum [m/s]                             2.99792458000000E+08
 Magnetic constant or permeability of vacuum [N/A**2]       1.25663706143592E-06
 Electric constant or permittivity of vacuum [F/m]          8.85418781762039E-12
 Planck constant (h) [J*s]                                  6.62606896000000E-34
 Planck constant (h-bar) [J*s]                              1.05457162825177E-34
 Elementary charge [C]                                      1.60217648700000E-19
 Electron mass [kg]                                         9.10938215000000E-31
 Electron g factor [ ]                                     -2.00231930436220E+00
 Proton mass [kg]                                           1.67262163700000E-27
 Fine-structure constant                                    7.29735253760000E-03
 Rydberg constant [1/m]                                     1.09737315685270E+07
 Avogadro constant [1/mol]                                  6.02214179000000E+23
 Boltzmann constant [J/K]                                   1.38065040000000E-23
 Atomic mass unit [kg]                                      1.66053878200000E-27
 Bohr radius [m]                                            5.29177208590000E-11

 *** Conversion factors ***

 [u] -> [a.u.]                                              1.82288848426455E+03
 [Angstrom] -> [Bohr] = [a.u.]                              1.88972613288564E+00
 [a.u.] = [Bohr] -> [Angstrom]                              5.29177208590000E-01
 [a.u.] -> [s]                                              2.41888432650478E-17
 [a.u.] -> [fs]                                             2.41888432650478E-02
 [a.u.] -> [J]                                              4.35974393937059E-18
 [a.u.] -> [N]                                              8.23872205491840E-08
 [a.u.] -> [K]                                              3.15774647902944E+05
 [a.u.] -> [kJ/mol]                                         2.62549961709828E+03
 [a.u.] -> [kcal/mol]                                       6.27509468713739E+02
 [a.u.] -> [Pa]                                             2.94210107994716E+13
 [a.u.] -> [bar]                                            2.94210107994716E+08
 [a.u.] -> [atm]                                            2.90362800883016E+08
 [a.u.] -> [eV]                                             2.72113838565563E+01
 [a.u.] -> [Hz]                                             6.57968392072181E+15
 [a.u.] -> [1/cm] (wave numbers)                            2.19474631370540E+05
 [a.u./Bohr**2] -> [1/cm]                                   5.14048714338585E+03
 

 CELL_TOP| Volume [angstrom^3]:                                        26196.625
 CELL_TOP| Vector a [angstrom    21.385     0.000     0.000    |a| =      21.385
 CELL_TOP| Vector b [angstrom     0.000    35.000     0.000    |b| =      35.000
 CELL_TOP| Vector c [angstrom     0.000     0.000    35.000    |c| =      35.000
 CELL_TOP| Angle (b,c), alpha [degree]:                                   90.000
 CELL_TOP| Angle (a,c), beta  [degree]:                                   90.000
 CELL_TOP| Angle (a,b), gamma [degree]:                                   90.000
 CELL_TOP| Numerically orthorhombic:                                         YES

 CELL| Volume [angstrom^3]:                                            26196.625
 CELL| Vector a [angstrom]:      21.385     0.000     0.000    |a| =      21.385
 CELL| Vector b [angstrom]:       0.000    35.000     0.000    |b| =      35.000
 CELL| Vector c [angstrom]:       0.000     0.000    35.000    |c| =      35.000
 CELL| Angle (b,c), alpha [degree]:                                       90.000
 CELL| Angle (a,c), beta  [degree]:                                       90.000
 CELL| Angle (a,b), gamma [degree]:                                       90.000
 CELL| Numerically orthorhombic:                                             YES

 CELL_REF| Volume [angstrom^3]:                                        26196.625
 CELL_REF| Vector a [angstrom    21.385     0.000     0.000    |a| =      21.385
 CELL_REF| Vector b [angstrom     0.000    35.000     0.000    |b| =      35.000
 CELL_REF| Vector c [angstrom     0.000     0.000    35.000    |c| =      35.000
 CELL_REF| Angle (b,c), alpha [degree]:                                   90.000
 CELL_REF| Angle (a,c), beta  [degree]:                                   90.000
 CELL_REF| Angle (a,b), gamma [degree]:                                   90.000
 CELL_REF| Numerically orthorhombic:                                         YES

 *******************************************************************************
 *******************************************************************************
 **                                                                           **
 **     #####                         ##              ##                      **
 **    ##   ##            ##          ##              ##                      **
 **   ##     ##                       ##            ######                    **
 **   ##     ##  ##   ##  ##   #####  ##  ##   ####   ##    #####    #####    **
 **   ##     ##  ##   ##  ##  ##      ## ##   ##      ##   ##   ##  ##   ##   **
 **   ##  ## ##  ##   ##  ##  ##      ####     ###    ##   ######   ######    **
 **    ##  ###   ##   ##  ##  ##      ## ##      ##   ##   ##       ##        **
 **     #######   #####   ##   #####  ##  ##  ####    ##    #####   ##        **
 **           ##                                                    ##        **
 **                                                                           **
 **                                                ... make the atoms dance   **
 **                                                                           **
 **            Copyright (C) by CP2K developers group (2000 - 2018)           **
 **                                                                           **
 *******************************************************************************

 DFT| Spin unrestricted (spin-polarized) Kohn-Sham calculation               UKS
 DFT| Multiplicity                                                            35
 DFT| Number of spin states                                                    2
 DFT| Charge                                                                   6
 DFT| Self-interaction correction (SIC)                                       NO
 DFT| Cutoffs: density                                              1.000000E-10
 DFT|          gradient                                             1.000000E-10
 DFT|          tau                                                  1.000000E-10
 DFT|          cutoff_smoothing_range                               0.000000E+00
 DFT| XC density smoothing                                                  NONE
 DFT| XC derivatives                                                          PW

 DFT+U| Method                                                          MULLIKEN
 DFT+U| Check atomic kind information for details
 FUNCTIONAL| ROUTINE=NEW
 FUNCTIONAL| BECKE88:
 FUNCTIONAL| A. Becke, Phys. Rev. A 38, 3098 (1988) {LSD version}               
 FUNCTIONAL| LYP:
 FUNCTIONAL| C. Lee, W. Yang, R.G. Parr, Phys. Rev. B, 37, 785 (1988) {LSD versi
 FUNCTIONAL| on}                                                                

 QS| Method:                                                                 GPW
 QS| Density plane wave grid type                        NON-SPHERICAL FULLSPACE
 QS| Number of grid levels:                                                   10
 QS| Density cutoff [a.u.]:                                                325.0
 QS| Multi grid cutoff [a.u.]: 1) grid level                               325.0
 QS|                           2) grid level                               108.3
 QS|                           3) grid level                                36.1
 QS|                           4) grid level                                12.0
 QS|                           5) grid level                                 4.0
 QS|                           6) grid level                                 1.3
 QS|                           7) grid level                                 0.4
 QS|                           8) grid level                                 0.1
 QS|                           9) grid level                                 0.0
 QS|                          10) grid level                                 0.0
 QS| Grid level progression factor:                                          3.0
 QS| Relative density cutoff [a.u.]:                                        30.0
 QS| Consistent realspace mapping and integration 
 QS| Interaction thresholds: eps_pgf_orb:                                1.0E-10
 QS|                         eps_filter_matrix:                          0.0E+00
 QS|                         eps_core_charge:                            1.0E-14
 QS|                         eps_rho_gspace:                             1.0E-12
 QS|                         eps_rho_rspace:                             1.0E-12
 QS|                         eps_gvg_rspace:                             1.0E-06
 QS|                         eps_ppl:                                    1.0E-02
 QS|                         eps_ppnl:                                   1.0E-08


 ATOMIC KIND INFORMATION

  1. Atomic kind: Fe                                    Number of atoms:       7

     Orbital Basis Set                                                   mod-DZV

       Number of orbital shell sets:                                           1
       Number of orbital shells:                                               7
       Number of primitive Cartesian functions:                                6
       Number of Cartesian basis functions:                                   21
       Number of spherical basis functions:                                   19
       Norm type:                                                              2

       Normalised Cartesian orbitals:

                        Set   Shell   Orbital            Exponent    Coefficient

                          1       1    2s                8.424366      -0.545589
                                                         4.825220      -0.832336
                                                         2.198939       0.958990
                                                         0.891661       0.416271
                                                         0.316231       0.012631
                                                         0.103474      -0.013505

                          1       2    3s                8.424366      -0.106056
                                                         4.825220      -0.104587
                                                         2.198939       0.052318
                                                         0.891661      -0.169042
                                                         0.316231       0.061854
                                                         0.103474       0.122891

                          1       3    4s                8.424366      -0.333477
                                                         4.825220      -0.289267
                                                         2.198939      -0.125861
                                                         0.891661      -1.004000
                                                         0.316231       0.780774
                                                         0.103474      -0.187846

                          1       4    3px               8.424366      -1.658234
                                                         4.825220       1.618912
                                                         2.198939       1.969078
                                                         0.891661       0.523780
                                                         0.316231       0.024574
                                                         0.103474      -0.000798
                          1       4    3py               8.424366      -1.658234
                                                         4.825220       1.618912
                                                         2.198939       1.969078
                                                         0.891661       0.523780
                                                         0.316231       0.024574
                                                         0.103474      -0.000798
                          1       4    3pz               8.424366      -1.658234
                                                         4.825220       1.618912
                                                         2.198939       1.969078
                                                         0.891661       0.523780
                                                         0.316231       0.024574
                                                         0.103474      -0.000798

                          1       5    4px               8.424366      -0.105249
                                                         4.825220      -0.126123
                                                         2.198939      -0.349657
                                                         0.891661      -0.133470
                                                         0.316231       0.170554
                                                         0.103474       0.054381
                          1       5    4py               8.424366      -0.105249
                                                         4.825220      -0.126123
                                                         2.198939      -0.349657
                                                         0.891661      -0.133470
                                                         0.316231       0.170554
                                                         0.103474       0.054381
                          1       5    4pz               8.424366      -0.105249
                                                         4.825220      -0.126123
                                                         2.198939      -0.349657
                                                         0.891661      -0.133470
                                                         0.316231       0.170554
                                                         0.103474       0.054381

                          1       6    4dx2              8.424366       7.918298
                                                         4.825220       5.112663
                                                         2.198939       2.118663
                                                         0.891661       0.465004
                                                         0.316231       0.065856
                                                         0.103474       0.002769
                          1       6    4dxy              8.424366      13.714895
                                                         4.825220       8.855393
                                                         2.198939       3.669632
                                                         0.891661       0.805411
                                                         0.316231       0.114066
                                                         0.103474       0.004796
                          1       6    4dxz              8.424366      13.714895
                                                         4.825220       8.855393
                                                         2.198939       3.669632
                                                         0.891661       0.805411
                                                         0.316231       0.114066
                                                         0.103474       0.004796
                          1       6    4dy2              8.424366       7.918298
                                                         4.825220       5.112663
                                                         2.198939       2.118663
                                                         0.891661       0.465004
                                                         0.316231       0.065856
                                                         0.103474       0.002769
                          1       6    4dyz              8.424366      13.714895
                                                         4.825220       8.855393
                                                         2.198939       3.669632
                                                         0.891661       0.805411
                                                         0.316231       0.114066
                                                         0.103474       0.004796
                          1       6    4dz2              8.424366       7.918298
                                                         4.825220       5.112663
                                                         2.198939       2.118663
                                                         0.891661       0.465004
                                                         0.316231       0.065856
                                                         0.103474       0.002769

                          1       7    5dx2              8.424366      -4.223614
                                                         4.825220      -1.970584
                                                         2.198939      -1.543490
                                                         0.891661      -0.041381
                                                         0.316231       0.082821
                                                         0.103474       0.021964
                          1       7    5dxy              8.424366      -7.315513
                                                         4.825220      -3.413151
                                                         2.198939      -2.673404
                                                         0.891661      -0.071673
                                                         0.316231       0.143450
                                                         0.103474       0.038042
                          1       7    5dxz              8.424366      -7.315513
                                                         4.825220      -3.413151
                                                         2.198939      -2.673404
                                                         0.891661      -0.071673
                                                         0.316231       0.143450
                                                         0.103474       0.038042
                          1       7    5dy2              8.424366      -4.223614
                                                         4.825220      -1.970584
                                                         2.198939      -1.543490
                                                         0.891661      -0.041381
                                                         0.316231       0.082821
                                                         0.103474       0.021964
                          1       7    5dyz              8.424366      -7.315513
                                                         4.825220      -3.413151
                                                         2.198939      -2.673404
                                                         0.891661      -0.071673
                                                         0.316231       0.143450
                                                         0.103474       0.038042
                          1       7    5dz2              8.424366      -4.223614
                                                         4.825220      -1.970584
                                                         2.198939      -1.543490
                                                         0.891661      -0.041381
                                                         0.316231       0.082821
                                                         0.103474       0.021964

     GTH Potential information for                                  GTH-BLYP-q16

       Description:                       Goedecker-Teter-Hutter pseudopotential
                                           Goedecker et al., PRB 54, 1703 (1996)
                                          Hartwigsen et al., PRB 58, 3641 (1998)
                                                      Krack, TCA 114, 145 (2005)

       Gaussian exponent of the core charge distribution:               3.858025
       Electronic configuration (s p d ...):                           4   6   6

       Parameters of the local part of the GTH pseudopotential:

                          rloc        C1          C2          C3          C4
                        0.360000    7.011025   -0.222747

       Parameters of the non-local part of the GTH pseudopotential:

                   l      r(l)      h(i,j,l)

                   0    0.276205    0.611496    7.992357
                                    7.992357  -10.318089
                   1    0.247130   -8.710556    8.684169
                                    8.684169  -10.275248
                   2    0.223534  -12.411504

     A DFT+U correction is applied to atoms of this atomic kind:
       Angular quantum momentum number L:                                      2
       U(eff) = (U - J) value in [eV]:                                     8.000

  2. Atomic kind: O                                     Number of atoms:      28

     Orbital Basis Set                                                   mod-DZV

       Number of orbital shell sets:                                           1
       Number of orbital shells:                                               4
       Number of primitive Cartesian functions:                                5
       Number of Cartesian basis functions:                                    8
       Number of spherical basis functions:                                    8
       Norm type:                                                              2

       Normalised Cartesian orbitals:

                        Set   Shell   Orbital            Exponent    Coefficient

                          1       1    2s               10.389228       0.396646
                                                         3.849621       0.208811
                                                         1.388401      -0.301641
                                                         0.496955      -0.274061
                                                         0.162492      -0.033677

                          1       2    3s               10.389228       0.303673
                                                         3.849621       0.240943
                                                         1.388401      -0.313066
                                                         0.496955      -0.043055
                                                         0.162492       0.213991

                          1       3    3px              10.389228      -1.530415
                                                         3.849621      -1.371928
                                                         1.388401      -0.761951
                                                         0.496955      -0.253695
                                                         0.162492      -0.035541
                          1       3    3py              10.389228      -1.530415
                                                         3.849621      -1.371928
                                                         1.388401      -0.761951
                                                         0.496955      -0.253695
                                                         0.162492      -0.035541
                          1       3    3pz              10.389228      -1.530415
                                                         3.849621      -1.371928
                                                         1.388401      -0.761951
                                                         0.496955      -0.253695
                                                         0.162492      -0.035541

                          1       4    4px              10.389228      -0.565392
                                                         3.849621      -0.038231
                                                         1.388401      -0.382373
                                                         0.496955       0.179070
                                                         0.162492       0.122714
                          1       4    4py              10.389228      -0.565392
                                                         3.849621      -0.038231
                                                         1.388401      -0.382373
                                                         0.496955       0.179070
                                                         0.162492       0.122714
                          1       4    4pz              10.389228      -0.565392
                                                         3.849621      -0.038231
                                                         1.388401      -0.382373
                                                         0.496955       0.179070
                                                         0.162492       0.122714

     GTH Potential information for                                   GTH-BLYP-q6

       Description:                       Goedecker-Teter-Hutter pseudopotential
                                           Goedecker et al., PRB 54, 1703 (1996)
                                          Hartwigsen et al., PRB 58, 3641 (1998)
                                                      Krack, TCA 114, 145 (2005)

       Gaussian exponent of the core charge distribution:               8.438331
       Electronic configuration (s p d ...):                               2   4

       Parameters of the local part of the GTH pseudopotential:

                          rloc        C1          C2          C3          C4
                        0.243420  -16.991892    2.566142

       Parameters of the non-local part of the GTH pseudopotential:

                   l      r(l)      h(i,j,l)

                   0    0.220831   18.388851
                   1    0.217201

  3. Atomic kind: H                                     Number of atoms:      42

     Orbital Basis Set                                                   mod-DZV

       Number of orbital shell sets:                                           1
       Number of orbital shells:                                               2
       Number of primitive Cartesian functions:                                5
       Number of Cartesian basis functions:                                    2
       Number of spherical basis functions:                                    2
       Norm type:                                                              2

       Normalised Cartesian orbitals:

                        Set   Shell   Orbital            Exponent    Coefficient

                          1       1    2s               10.068468      -0.133023
                                                         2.680223      -0.177618
                                                         0.791502      -0.258419
                                                         0.239116      -0.107525
                                                         0.082193      -0.014019

                          1       2    3s               10.068468       0.344673
                                                         2.680223       1.819821
                                                         0.791502      -0.999069
                                                         0.239116       0.017430
                                                         0.082193       0.082660

     GTH Potential information for                                   GTH-BLYP-q1

       Description:                       Goedecker-Teter-Hutter pseudopotential
                                           Goedecker et al., PRB 54, 1703 (1996)
                                          Hartwigsen et al., PRB 58, 3641 (1998)
                                                      Krack, TCA 114, 145 (2005)

       Gaussian exponent of the core charge distribution:              12.500000
       Electronic configuration (s p d ...):                                   1

       Parameters of the local part of the GTH pseudopotential:

                          rloc        C1          C2          C3          C4
                        0.200000   -4.195961    0.730498


 MOLECULE KIND INFORMATION


 All atoms are their own molecule, skipping detailed information


 TOTAL NUMBERS AND MAXIMUM NUMBERS

  Total number of            - Atomic kinds:                                   3
                             - Atoms:                                         77
                             - Shell sets:                                    77
                             - Shells:                                       245
                             - Primitive Cartesian functions:                392
                             - Cartesian basis functions:                    455
                             - Spherical basis functions:                    441

  Maximum angular momentum of- Orbital basis functions:                        2
                             - Local part of the GTH pseudopotential:          2
                             - Non-local part of the GTH pseudopotential:      3


 MODULE QUICKSTEP:  ATOMIC COORDINATES IN angstrom

  Atom  Kind  Element       X           Y           Z          Z(eff)       Mass

       1     1 Fe  26   18.338988    0.000012    0.000014     16.00      55.8450
       2     1 Fe  26   15.275521    0.001259    0.005882     16.00      55.8450
       3     1 Fe  26   12.194469   -0.000172    0.000316     16.00      55.8450
       4     1 Fe  26    9.160147    0.009347   -0.008025     16.00      55.8450
       5     1 Fe  26    6.145967    0.004118    0.000000     16.00      55.8450
       6     1 Fe  26    3.082877   -0.001679   -0.006524     16.00      55.8450
       7     1 Fe  26    0.008368   -0.000233   -0.000181     16.00      55.8450
       8     2 O    8   18.327643   -0.013352    2.095434      6.00      15.9994
       9     2 O    8   18.323018    0.013414   -2.094934      6.00      15.9994
      10     2 O    8   19.860487   -1.224673   -0.011735      6.00      15.9994
      11     2 O    8   19.860620    1.224351    0.011627      6.00      15.9994
      12     2 O    8   15.303235   -0.012066    2.105890      6.00      15.9994
      13     2 O    8   15.295898    0.012686   -2.099563      6.00      15.9994
      14     2 O    8   16.816551   -1.222097   -0.009838      6.00      15.9994
      15     2 O    8   16.817090    1.224016    0.011765      6.00      15.9994
      16     2 O    8   12.266876    0.028973    2.138197      6.00      15.9994
      17     2 O    8   12.268236   -0.030004   -2.127286      6.00      15.9994
      18     2 O    8   13.774787   -1.217131    0.020563      6.00      15.9994
      19     2 O    8   13.775205    1.219236    0.006892      6.00      15.9994
      20     2 O    8    9.187894    0.013781    2.162807      6.00      15.9994
      21     2 O    8    9.189051    0.028764   -2.181326      6.00      15.9994
      22     2 O    8   10.780775   -1.252930    0.013958      6.00      15.9994
      23     2 O    8   10.787147    1.258090   -0.018443      6.00      15.9994
      24     2 O    8    6.079436    0.028020    2.141667      6.00      15.9994
      25     2 O    8    6.079671   -0.010317   -2.159390      6.00      15.9994
      26     2 O    8    7.602755   -1.268138    0.008580      6.00      15.9994
      27     2 O    8    7.599264    1.276087   -0.012446      6.00      15.9994
      28     2 O    8    3.024338   -0.032371    2.106991      6.00      15.9994
      29     2 O    8    3.018561    0.030661   -2.113898      6.00      15.9994
      30     2 O    8    4.540914   -1.234322   -0.022250      6.00      15.9994
      31     2 O    8    4.537444    1.234053   -0.005509      6.00      15.9994
      32     2 O    8   -0.019213   -0.015484    2.098474      6.00      15.9994
      33     2 O    8   -0.021464    0.015197   -2.098694      6.00      15.9994
      34     2 O    8    1.518555   -1.221185   -0.025986      6.00      15.9994
      35     2 O    8    1.518733    1.218314    0.023814      6.00      15.9994
      36     3 H    1   18.294757   -0.796428   -2.661905      1.00       1.0079
      37     3 H    1   18.271316    0.828450   -2.652822      1.00       1.0079
      38     3 H    1   18.271788   -0.828162    2.653141      1.00       1.0079
      39     3 H    1   18.292766    0.796487    2.661424      1.00       1.0079
      40     3 H    1   19.863048   -2.212857   -0.014826      1.00       1.0079
      41     3 H    1   19.863235    2.212530    0.014492      1.00       1.0079
      42     3 H    1   15.152901   -0.798498   -2.651443      1.00       1.0079
      43     3 H    1   15.108412    0.822694   -2.636307      1.00       1.0079
      44     3 H    1   15.112221   -0.822739    2.639969      1.00       1.0079
      45     3 H    1   15.148443    0.798165    2.655914      1.00       1.0079
      46     3 H    1   16.808638   -2.210287   -0.012525      1.00       1.0079
      47     3 H    1   16.809869    2.212210    0.015680      1.00       1.0079
      48     3 H    1   12.076621   -0.851523   -2.648708      1.00       1.0079
      49     3 H    1   12.038576    0.770335   -2.665615      1.00       1.0079
      50     3 H    1   12.046106   -0.773290    2.677279      1.00       1.0079
      51     3 H    1   12.065740    0.849142    2.657855      1.00       1.0079
      52     3 H    1   13.749787   -2.204537    0.016197      1.00       1.0079
      53     3 H    1   13.749801    2.206644    0.006669      1.00       1.0079
      54     3 H    1    9.113603   -0.774575   -2.746756      1.00       1.0079
      55     3 H    1    9.123243    0.850860   -2.723717      1.00       1.0079
      56     3 H    1    9.128584   -0.803269    2.713919      1.00       1.0079
      57     3 H    1    9.111778    0.821615    2.720296      1.00       1.0079
      58     3 H    1   10.754887   -2.238807    0.021032      1.00       1.0079
      59     3 H    1   10.768435    2.244188   -0.019747      1.00       1.0079
      60     3 H    1    6.193651   -0.831984   -2.695325      1.00       1.0079
      61     3 H    1    6.242921    0.792502   -2.704729      1.00       1.0079
      62     3 H    1    6.231738   -0.773333    2.694058      1.00       1.0079
      63     3 H    1    6.194840    0.851327    2.675083      1.00       1.0079
      64     3 H    1    7.611501   -2.253571    0.007458      1.00       1.0079
      65     3 H    1    7.604331    2.261806   -0.014927      1.00       1.0079
      66     3 H    1    3.188226   -0.776776   -2.664125      1.00       1.0079
      67     3 H    1    3.233191    0.844395   -2.638289      1.00       1.0079
      68     3 H    1    3.224466   -0.847272    2.635285      1.00       1.0079
      69     3 H    1    3.191364    0.774794    2.657711      1.00       1.0079
      70     3 H    1    4.570068   -2.220911   -0.025522      1.00       1.0079
      71     3 H    1    4.562378    2.220726   -0.001203      1.00       1.0079
      72     3 H    1    0.080734   -0.793971   -2.657841      1.00       1.0079
      73     3 H    1    0.086930    0.829376   -2.653650      1.00       1.0079
      74     3 H    1    0.082351   -0.830192    2.653998      1.00       1.0079
      75     3 H    1    0.079994    0.793222    2.657988      1.00       1.0079
      76     3 H    1    1.534113   -2.209035   -0.028770      1.00       1.0079
      77     3 H    1    1.535061    2.206156    0.025062      1.00       1.0079




 SCF PARAMETERS         Density guess:                                   RESTART
                        --------------------------------------------------------
                        max_scf:                                            1000
                        max_scf_history:                                       0
                        max_diis:                                              4
                        --------------------------------------------------------
                        eps_scf:                                        1.00E-06
                        eps_scf_history:                                0.00E+00
                        eps_diis:                                       1.00E-01
                        eps_eigval:                                     1.00E-05
                        --------------------------------------------------------
                        level_shift [a.u.]:                                 0.00
                        --------------------------------------------------------
                        Outer loop SCF in use 
                        No variables optimised in outer loop
                        eps_scf                                         1.00E-06
                        max_scf                                              500
                        No outer loop optimization
                        step_size                                       5.00E-01

 PW_GRID| Information for grid number                                          1
 PW_GRID| Grid distributed over                                    40 processors
 PW_GRID| Real space group dimensions                                    40    1
 PW_GRID| the grid is blocked:                                                NO
 PW_GRID| Cutoff [a.u.]                                                    325.0
 PW_GRID| spherical cutoff:                                                   NO
 PW_GRID|   Bounds   1           -165     164                Points:         330
 PW_GRID|   Bounds   2           -270     269                Points:         540
 PW_GRID|   Bounds   3           -270     269                Points:         540
 PW_GRID| Volume element (a.u.^3)  0.1837E-02     Volume (a.u.^3)    176783.5904
 PW_GRID| Grid span                                                    FULLSPACE
 PW_GRID|   Distribution                         Average         Max         Min
 PW_GRID|   G-Vectors                          2405700.0     2405700     2405700
 PW_GRID|   G-Rays                                7290.0        7290        7290
 PW_GRID|   Real Space Points                  2405700.0     2624400     2332800

 PW_GRID| Information for grid number                                          2
 PW_GRID| Grid distributed over                                    40 processors
 PW_GRID| Real space group dimensions                                    40    1
 PW_GRID| the grid is blocked:                                                NO
 PW_GRID| Cutoff [a.u.]                                                    108.3
 PW_GRID| spherical cutoff:                                                   NO
 PW_GRID|   Bounds   1            -94      94                Points:         189
 PW_GRID|   Bounds   2           -157     157                Points:         315
 PW_GRID|   Bounds   3           -157     157                Points:         315
 PW_GRID| Volume element (a.u.^3)  0.9427E-02     Volume (a.u.^3)    176783.5904
 PW_GRID| Grid span                                                    FULLSPACE
 PW_GRID|   Distribution                         Average         Max         Min
 PW_GRID|   G-Vectors                           468838.1      469098      468720
 PW_GRID|   G-Rays                                2480.6        2482        2480
 PW_GRID|   Real Space Points                   468838.1      496125      396900

 PW_GRID| Information for grid number                                          3
 PW_GRID| Grid distributed over                                    40 processors
 PW_GRID| Real space group dimensions                                    40    1
 PW_GRID| the grid is blocked:                                                NO
 PW_GRID| Cutoff [a.u.]                                                     36.1
 PW_GRID| spherical cutoff:                                                   NO
 PW_GRID|   Bounds   1            -55      54                Points:         110
 PW_GRID|   Bounds   2            -90      89                Points:         180
 PW_GRID|   Bounds   3            -90      89                Points:         180
 PW_GRID| Volume element (a.u.^3)  0.4960E-01     Volume (a.u.^3)    176783.5904
 PW_GRID| Grid span                                                    FULLSPACE
 PW_GRID|   Distribution                         Average         Max         Min
 PW_GRID|   G-Vectors                            89100.0       89320       88990
 PW_GRID|   G-Rays                                 810.0         812         809
 PW_GRID|   Real Space Points                    89100.0       97200       64800

 PW_GRID| Information for grid number                                          4
 PW_GRID| Grid distributed over                                    40 processors
 PW_GRID| Real space group dimensions                                    40    1
 PW_GRID| the grid is blocked:                                                NO
 PW_GRID| Cutoff [a.u.]                                                     12.0
 PW_GRID| spherical cutoff:                                                   NO
 PW_GRID|   Bounds   1            -31      31                Points:          63
 PW_GRID|   Bounds   2            -52      52                Points:         105
 PW_GRID|   Bounds   3            -52      52                Points:         105
 PW_GRID| Volume element (a.u.^3)  0.2545         Volume (a.u.^3)    176783.5904
 PW_GRID| Grid span                                                    FULLSPACE
 PW_GRID|   Distribution                         Average         Max         Min
 PW_GRID|   G-Vectors                            17364.4       17451       17262
 PW_GRID|   G-Rays                                 275.6         277         274
 PW_GRID|   Real Space Points                    17364.4       22050       11025

 PW_GRID| Information for grid number                                          5
 PW_GRID| Grid distributed over                                    40 processors
 PW_GRID| Real space group dimensions                                    40    1
 PW_GRID| the grid is blocked:                                                NO
 PW_GRID| Cutoff [a.u.]                                                      4.0
 PW_GRID| spherical cutoff:                                                   NO
 PW_GRID|   Bounds   1            -20      19                Points:          40
 PW_GRID|   Bounds   2            -30      29                Points:          60
 PW_GRID|   Bounds   3            -30      29                Points:          60
 PW_GRID| Volume element (a.u.^3)   1.228         Volume (a.u.^3)    176783.5904
 PW_GRID| Grid span                                                    FULLSPACE
 PW_GRID|   Distribution                         Average         Max         Min
 PW_GRID|   G-Vectors                             3600.0        3680        3560
 PW_GRID|   G-Rays                                  90.0          92          89
 PW_GRID|   Real Space Points                     3600.0        3600        3600

 PW_GRID| Information for grid number                                          6
 PW_GRID| Grid distributed over                                    40 processors
 PW_GRID| Real space group dimensions                                     5    8
 PW_GRID| the grid is blocked:                                                NO
 PW_GRID| Cutoff [a.u.]                                                      1.3
 PW_GRID| spherical cutoff:                                                   NO
 PW_GRID|   Bounds   1            -10      10                Points:          21
 PW_GRID|   Bounds   2            -17      17                Points:          35
 PW_GRID|   Bounds   3            -17      17                Points:          35
 PW_GRID| Volume element (a.u.^3)   6.872         Volume (a.u.^3)    176783.5904
 PW_GRID| Grid span                                                    FULLSPACE
 PW_GRID|   Distribution                         Average         Max         Min
 PW_GRID|   G-Vectors                              643.1         714         588
 PW_GRID|   G-Rays                                  30.6          34          28
 PW_GRID|   Real Space Points                      643.1         875         560

 PW_GRID| Information for grid number                                          7
 PW_GRID| Grid distributed over                                    40 processors
 PW_GRID| Real space group dimensions                                     5    8
 PW_GRID| the grid is blocked:                                                NO
 PW_GRID| Cutoff [a.u.]                                                      0.4
 PW_GRID| spherical cutoff:                                                   NO
 PW_GRID|   Bounds   1             -7       6                Points:          14
 PW_GRID|   Bounds   2            -10       9                Points:          20
 PW_GRID|   Bounds   3            -10       9                Points:          20
 PW_GRID| Volume element (a.u.^3)   31.57         Volume (a.u.^3)    176783.5904
 PW_GRID| Grid span                                                    FULLSPACE
 PW_GRID|   Distribution                         Average         Max         Min
 PW_GRID|   G-Vectors                              140.0         168         126
 PW_GRID|   G-Rays                                  10.0          12           9
 PW_GRID|   Real Space Points                      140.0         180          80

 PW_GRID| Information for grid number                                          8
 PW_GRID| Grid distributed over                                    40 processors
 PW_GRID| Real space group dimensions                                     5    8
 PW_GRID| the grid is blocked:                                                NO
 PW_GRID| Cutoff [a.u.]                                                      0.1
 PW_GRID| spherical cutoff:                                                   NO
 PW_GRID|   Bounds   1             -3       3                Points:           7
 PW_GRID|   Bounds   2             -5       5                Points:          11
 PW_GRID|   Bounds   3             -5       5                Points:          11
 PW_GRID| Volume element (a.u.^3)   208.7         Volume (a.u.^3)    176783.5904
 PW_GRID| Grid span                                                    FULLSPACE
 PW_GRID|   Distribution                         Average         Max         Min
 PW_GRID|   G-Vectors                               21.2          35          14
 PW_GRID|   G-Rays                                   3.0           5           2
 PW_GRID|   Real Space Points                       21.2          44          11

 PW_GRID| Information for grid number                                          9
 PW_GRID| Grid distributed over                                    40 processors
 PW_GRID| Real space group dimensions                                     5    8
 PW_GRID| the grid is blocked:                                                NO
 PW_GRID| Cutoff [a.u.]                                                      0.0
 PW_GRID| spherical cutoff:                                                   NO
 PW_GRID|   Bounds   1             -2       2                Points:           5
 PW_GRID|   Bounds   2             -3       3                Points:           7
 PW_GRID|   Bounds   3             -3       3                Points:           7
 PW_GRID| Volume element (a.u.^3)   721.6         Volume (a.u.^3)    176783.5904
 PW_GRID| Grid span                                                    FULLSPACE
 PW_GRID|   Distribution                         Average         Max         Min
 PW_GRID|   G-Vectors                                6.1          15           0
 PW_GRID|   G-Rays                                   1.2           3           0
 PW_GRID|   Real Space Points                        6.1           7           0

 PW_GRID| Information for grid number                                         10
 PW_GRID| Grid distributed over                                    40 processors
 PW_GRID| Real space group dimensions                                     5    8
 PW_GRID| the grid is blocked:                                                NO
 PW_GRID| Cutoff [a.u.]                                                      0.0
 PW_GRID| spherical cutoff:                                                   NO
 PW_GRID|   Bounds   1             -1       1                Points:           3
 PW_GRID|   Bounds   2             -1       1                Points:           3
 PW_GRID|   Bounds   3             -1       1                Points:           3
 PW_GRID| Volume element (a.u.^3)   6548.         Volume (a.u.^3)    176783.5904
 PW_GRID| Grid span                                                    FULLSPACE
 PW_GRID|   Distribution                         Average         Max         Min
 PW_GRID|   G-Vectors                                0.7           3           0
 PW_GRID|   G-Rays                                   0.2           1           0
 PW_GRID|   Real Space Points                        0.7           3           0

 POISSON| Solver                                                        PERIODIC
 POISSON| Periodicity                                                        XYZ

 RS_GRID| Information for grid number                                          1
 RS_GRID|   Bounds   1           -165     164                Points:         330
 RS_GRID|   Bounds   2           -270     269                Points:         540
 RS_GRID|   Bounds   3           -270     269                Points:         540
 RS_GRID| Real space distribution over                                  5 groups
 RS_GRID| Real space distribution along direction                              2
 RS_GRID| Border size                                                         25
 RS_GRID| Real space distribution over                                  8 groups
 RS_GRID| Real space distribution along direction                              3
 RS_GRID| Border size                                                         25
 RS_GRID|   Distribution                         Average         Max         Min
 RS_GRID|   Planes                                 158.0         158         158
 RS_GRID|   Distribution                         Average         Max         Min
 RS_GRID|   Planes                                 117.5         118         117

 RS_GRID| Information for grid number                                          2
 RS_GRID|   Bounds   1            -94      94                Points:         189
 RS_GRID|   Bounds   2           -157     157                Points:         315
 RS_GRID|   Bounds   3           -157     157                Points:         315
 RS_GRID| Real space distribution over                                  5 groups
 RS_GRID| Real space distribution along direction                              2
 RS_GRID| Border size                                                         28
 RS_GRID| Real space distribution over                                  8 groups
 RS_GRID| Real space distribution along direction                              3
 RS_GRID| Border size                                                         28
 RS_GRID|   Distribution                         Average         Max         Min
 RS_GRID|   Planes                                 119.0         119         119
 RS_GRID|   Distribution                         Average         Max         Min
 RS_GRID|   Planes                                  95.4          96          95

 RS_GRID| Information for grid number                                          3
 RS_GRID|   Bounds   1            -55      54                Points:         110
 RS_GRID|   Bounds   2            -90      89                Points:         180
 RS_GRID|   Bounds   3            -90      89                Points:         180
 RS_GRID| Real space fully replicated
 RS_GRID| Group size                                                           1

 RS_GRID| Information for grid number                                          4
 RS_GRID|   Bounds   1            -31      31                Points:          63
 RS_GRID|   Bounds   2            -52      52                Points:         105
 RS_GRID|   Bounds   3            -52      52                Points:         105
 RS_GRID| Real space fully replicated
 RS_GRID| Group size                                                           1

 RS_GRID| Information for grid number                                          5
 RS_GRID|   Bounds   1            -20      19                Points:          40
 RS_GRID|   Bounds   2            -30      29                Points:          60
 RS_GRID|   Bounds   3            -30      29                Points:          60
 RS_GRID| Real space fully replicated
 RS_GRID| Group size                                                           1

 RS_GRID| Information for grid number                                          6
 RS_GRID|   Bounds   1            -10      10                Points:          21
 RS_GRID|   Bounds   2            -17      17                Points:          35
 RS_GRID|   Bounds   3            -17      17                Points:          35
 RS_GRID| Real space fully replicated
 RS_GRID| Group size                                                           1

 RS_GRID| Information for grid number                                          7
 RS_GRID|   Bounds   1             -7       6                Points:          14
 RS_GRID|   Bounds   2            -10       9                Points:          20
 RS_GRID|   Bounds   3            -10       9                Points:          20
 RS_GRID| Real space fully replicated
 RS_GRID| Group size                                                           1

 RS_GRID| Information for grid number                                          8
 RS_GRID|   Bounds   1             -3       3                Points:           7
 RS_GRID|   Bounds   2             -5       5                Points:          11
 RS_GRID|   Bounds   3             -5       5                Points:          11
 RS_GRID| Real space fully replicated
 RS_GRID| Group size                                                           1

 RS_GRID| Information for grid number                                          9
 RS_GRID|   Bounds   1             -2       2                Points:           5
 RS_GRID|   Bounds   2             -3       3                Points:           7
 RS_GRID|   Bounds   3             -3       3                Points:           7
 RS_GRID| Real space fully replicated
 RS_GRID| Group size                                                           1

 RS_GRID| Information for grid number                                         10
 RS_GRID|   Bounds   1             -1       1                Points:           3
 RS_GRID|   Bounds   2             -1       1                Points:           3
 RS_GRID|   Bounds   3             -1       1                Points:           3
 RS_GRID| Real space fully replicated
 RS_GRID| Group size                                                           1

 Spin 1

 Number of electrons:                                                        175
 Number of occupied orbitals:                                                175
 Number of molecular orbitals:                                               175

 Spin 2

 Number of electrons:                                                        141
 Number of occupied orbitals:                                                141
 Number of molecular orbitals:                                               141

 Number of orbital functions:                                                441
 Number of independent orbital functions:                                    441

 Extrapolation method: initial_guess


 SCF WAVEFUNCTION OPTIMIZATION

  ----------------------------------- OT ---------------------------------------
  Minimizer      : CG                  : conjugate gradient
  Preconditioner : FULL_KINETIC        : inversion of T + eS
  Precond_solver : DEFAULT
  Line search    : 2PNT                : 2 energies, one gradient
  stepsize       :    0.15000000                  energy_gap     :    0.20000000
  eps_taylor     :   0.10000E-15                  max_taylor     :             4
  ----------------------------------- OT ---------------------------------------

  Step     Update method      Time    Convergence         Total energy    Change
  ------------------------------------------------------------------------------

 *** WARNING in dft_plus_u.F:1457 :: DFT+U energy contibution is negative ***
 *** possibly due to unphysical Mulliken charges. Check your input, if    ***
 *** this warning persists or try a different method!                     ***

     1 OT CG       0.15E+00   15.3     0.00032634     -1335.5672760749 -1.34E+03

 *** WARNING in dft_plus_u.F:1457 :: DFT+U energy contibution is negative ***
 *** possibly due to unphysical Mulliken charges. Check your input, if    ***
 *** this warning persists or try a different method!                     ***

     2 OT LS       0.60E+00    9.7                    -1335.5693178783

 *** WARNING in dft_plus_u.F:1457 :: DFT+U energy contibution is negative ***
 *** possibly due to unphysical Mulliken charges. Check your input, if    ***
 *** this warning persists or try a different method!                     ***

     3 OT CG       0.60E+00   19.1     0.00016812     -1335.5732315888 -5.96E-03

 *** WARNING in dft_plus_u.F:1457 :: DFT+U energy contibution is negative ***
 *** possibly due to unphysical Mulliken charges. Check your input, if    ***
 *** this warning persists or try a different method!                     ***

     4 OT LS       0.77E+00    9.6                    -1335.5746782457

 *** WARNING in dft_plus_u.F:1457 :: DFT+U energy contibution is negative ***
 *** possibly due to unphysical Mulliken charges. Check your input, if    ***
 *** this warning persists or try a different method!                     ***

     5 OT CG       0.77E+00   19.1     0.00018333     -1335.5747549415 -1.52E-03

 *** WARNING in dft_plus_u.F:1457 :: DFT+U energy contibution is negative ***
 *** possibly due to unphysical Mulliken charges. Check your input, if    ***
 *** this warning persists or try a different method!                     ***

     6 OT LS       0.41E+00    9.7                    -1335.5749775904

 *** WARNING in dft_plus_u.F:1457 :: DFT+U energy contibution is negative ***
 *** possibly due to unphysical Mulliken charges. Check your input, if    ***
 *** this warning persists or try a different method!                     ***

     7 OT CG       0.41E+00   19.1     0.00011098     -1335.5757201149 -9.65E-04

 *** WARNING in dft_plus_u.F:1457 :: DFT+U energy contibution is negative ***
 *** possibly due to unphysical Mulliken charges. Check your input, if    ***
 *** this warning persists or try a different method!                     ***

     8 OT LS       0.32E+00    9.6                    -1335.5759737635

 *** WARNING in dft_plus_u.F:1457 :: DFT+U energy contibution is negative ***
 *** possibly due to unphysical Mulliken charges. Check your input, if    ***
 *** this warning persists or try a different method!                     ***

     9 OT CG       0.32E+00   19.2     0.00007329     -1335.5759958096 -2.76E-04

 *** WARNING in dft_plus_u.F:1457 :: DFT+U energy contibution is negative ***
 *** possibly due to unphysical Mulliken charges. Check your input, if    ***
 *** this warning persists or try a different method!                     ***

    10 OT LS       0.43E+00    9.6                    -1335.5761467667

 *** WARNING in dft_plus_u.F:1457 :: DFT+U energy contibution is negative ***
 *** possibly due to unphysical Mulliken charges. Check your input, if    ***
 *** this warning persists or try a different method!                     ***

    11 OT CG       0.43E+00   19.1     0.00006448     -1335.5761573317 -1.62E-04

 *** WARNING in dft_plus_u.F:1457 :: DFT+U energy contibution is negative ***
 *** possibly due to unphysical Mulliken charges. Check your input, if    ***
 *** this warning persists or try a different method!                     ***

    12 OT LS       0.49E+00    9.6                    -1335.5762978126

 *** WARNING in dft_plus_u.F:1457 :: DFT+U energy contibution is negative ***
 *** possibly due to unphysical Mulliken charges. Check your input, if    ***
 *** this warning persists or try a different method!                     ***

    13 OT CG       0.49E+00   19.2     0.00004910     -1335.5762999897 -1.43E-04

 *** WARNING in dft_plus_u.F:1457 :: DFT+U energy contibution is negative ***
 *** possibly due to unphysical Mulliken charges. Check your input, if    ***
 *** this warning persists or try a different method!                     ***

    14 OT LS       0.33E+00   10.0                    -1335.5763422926

 *** WARNING in dft_plus_u.F:1457 :: DFT+U energy contibution is negative ***
 *** possibly due to unphysical Mulliken charges. Check your input, if    ***
 *** this warning persists or try a different method!                     ***

    15 OT CG       0.33E+00   19.3     0.00003337     -1335.5763555530 -5.56E-05

 *** WARNING in dft_plus_u.F:1457 :: DFT+U energy contibution is negative ***
 *** possibly due to unphysical Mulliken charges. Check your input, if    ***
 *** this warning persists or try a different method!                     ***

    16 OT LS       0.51E+00    9.7                    -1335.5763902158

 *** WARNING in dft_plus_u.F:1457 :: DFT+U energy contibution is negative ***
 *** possibly due to unphysical Mulliken charges. Check your input, if    ***
 *** this warning persists or try a different method!                     ***

    17 OT CG       0.51E+00   19.2     0.00003488     -1335.5763950573 -3.95E-05

 *** WARNING in dft_plus_u.F:1457 :: DFT+U energy contibution is negative ***
 *** possibly due to unphysical Mulliken charges. Check your input, if    ***
 *** this warning persists or try a different method!                     ***

    18 OT LS       0.60E+00    9.7                    -1335.5764448031

 *** WARNING in dft_plus_u.F:1457 :: DFT+U energy contibution is negative ***
 *** possibly due to unphysical Mulliken charges. Check your input, if    ***
 *** this warning persists or try a different method!                     ***

    19 OT CG       0.60E+00   19.2     0.00003606     -1335.5764459940 -5.09E-05

 *** WARNING in dft_plus_u.F:1457 :: DFT+U energy contibution is negative ***
 *** possibly due to unphysical Mulliken charges. Check your input, if    ***
 *** this warning persists or try a different method!                     ***

    20 OT LS       0.50E+00    9.7                    -1335.5764899481

 *** WARNING in dft_plus_u.F:1457 :: DFT+U energy contibution is negative ***
 *** possibly due to unphysical Mulliken charges. Check your input, if    ***
 *** this warning persists or try a different method!                     ***

    21 OT CG       0.50E+00   19.2     0.00003239     -1335.5764916450 -4.57E-05

 *** WARNING in dft_plus_u.F:1457 :: DFT+U energy contibution is negative ***
 *** possibly due to unphysical Mulliken charges. Check your input, if    ***
 *** this warning persists or try a different method!                     ***

    22 OT LS       0.56E+00    9.7                    -1335.5765322264

 *** WARNING in dft_plus_u.F:1457 :: DFT+U energy contibution is negative ***
 *** possibly due to unphysical Mulliken charges. Check your input, if    ***
 *** this warning persists or try a different method!                     ***

    23 OT CG       0.56E+00   19.3     0.00003302     -1335.5765326528 -4.10E-05

 *** WARNING in dft_plus_u.F:1457 :: DFT+U energy contibution is negative ***
 *** possibly due to unphysical Mulliken charges. Check your input, if    ***
 *** this warning persists or try a different method!                     ***

    24 OT LS       0.57E+00    9.7                    -1335.5765757864

 *** WARNING in dft_plus_u.F:1457 :: DFT+U energy contibution is negative ***
 *** possibly due to unphysical Mulliken charges. Check your input, if    ***
 *** this warning persists or try a different method!                     ***

    25 OT CG       0.57E+00   19.3     0.00003024     -1335.5765757930 -4.31E-05

 *** WARNING in dft_plus_u.F:1457 :: DFT+U energy contibution is negative ***
 *** possibly due to unphysical Mulliken charges. Check your input, if    ***
 *** this warning persists or try a different method!                     ***

    26 OT LS       0.46E+00    9.7                    -1335.5766030902

 *** WARNING in dft_plus_u.F:1457 :: DFT+U energy contibution is negative ***
 *** possibly due to unphysical Mulliken charges. Check your input, if    ***
 *** this warning persists or try a different method!                     ***

    27 OT CG       0.46E+00   19.2     0.00002224     -1335.5766048434 -2.91E-05

 *** WARNING in dft_plus_u.F:1457 :: DFT+U energy contibution is negative ***
 *** possibly due to unphysical Mulliken charges. Check your input, if    ***
 *** this warning persists or try a different method!                     ***

    28 OT LS       0.39E+00    9.8                    -1335.5766178665

 *** WARNING in dft_plus_u.F:1457 :: DFT+U energy contibution is negative ***
 *** possibly due to unphysical Mulliken charges. Check your input, if    ***
 *** this warning persists or try a different method!                     ***

    29 OT CG       0.39E+00   19.3     0.00001734     -1335.5766182595 -1.34E-05

 *** WARNING in dft_plus_u.F:1457 :: DFT+U energy contibution is negative ***
 *** possibly due to unphysical Mulliken charges. Check your input, if    ***
 *** this warning persists or try a different method!                     ***

    30 OT LS       0.44E+00    9.7                    -1335.5766273912

 *** WARNING in dft_plus_u.F:1457 :: DFT+U energy contibution is negative ***
 *** possibly due to unphysical Mulliken charges. Check your input, if    ***
 *** this warning persists or try a different method!                     ***

    31 OT CG       0.44E+00   19.4     0.00001503     -1335.5766275235 -9.26E-06

 *** WARNING in dft_plus_u.F:1457 :: DFT+U energy contibution is negative ***
 *** possibly due to unphysical Mulliken charges. Check your input, if    ***
 *** this warning persists or try a different method!                     ***

    32 OT LS       0.42E+00    9.7                    -1335.5766340676

 *** WARNING in dft_plus_u.F:1457 :: DFT+U energy contibution is negative ***
 *** possibly due to unphysical Mulliken charges. Check your input, if    ***
 *** this warning persists or try a different method!                     ***

    33 OT CG       0.42E+00   19.4     0.00001123     -1335.5766340905 -6.57E-06

 *** WARNING in dft_plus_u.F:1457 :: DFT+U energy contibution is negative ***
 *** possibly due to unphysical Mulliken charges. Check your input, if    ***
 *** this warning persists or try a different method!                     ***

    34 OT LS       0.42E+00    9.7                    -1335.5766377758

 *** WARNING in dft_plus_u.F:1457 :: DFT+U energy contibution is negative ***
 *** possibly due to unphysical Mulliken charges. Check your input, if    ***
 *** this warning persists or try a different method!                     ***

    35 OT CG       0.42E+00   19.6     0.00000917     -1335.5766377759 -3.69E-06

 *** WARNING in dft_plus_u.F:1457 :: DFT+U energy contibution is negative ***
 *** possibly due to unphysical Mulliken charges. Check your input, if    ***
 *** this warning persists or try a different method!                     ***

    36 OT LS       0.56E+00    9.8                    -1335.5766408432

 *** WARNING in dft_plus_u.F:1457 :: DFT+U energy contibution is negative ***
 *** possibly due to unphysical Mulliken charges. Check your input, if    ***
 *** this warning persists or try a different method!                     ***

    37 OT CG       0.56E+00   19.3     0.00000935     -1335.5766410431 -3.27E-06

 *** WARNING in dft_plus_u.F:1457 :: DFT+U energy contibution is negative ***
 *** possibly due to unphysical Mulliken charges. Check your input, if    ***
 *** this warning persists or try a different method!                     ***

    38 OT LS       0.47E+00    9.7                    -1335.5766438271

 *** WARNING in dft_plus_u.F:1457 :: DFT+U energy contibution is negative ***
 *** possibly due to unphysical Mulliken charges. Check your input, if    ***
 *** this warning persists or try a different method!                     ***

    39 OT CG       0.47E+00   19.2     0.00000807     -1335.5766439194 -2.88E-06

 *** WARNING in dft_plus_u.F:1457 :: DFT+U energy contibution is negative ***
 *** possibly due to unphysical Mulliken charges. Check your input, if    ***
 *** this warning persists or try a different method!                     ***

    40 OT LS       0.47E+00    9.8                    -1335.5766460527

 *** WARNING in dft_plus_u.F:1457 :: DFT+U energy contibution is negative ***
 *** possibly due to unphysical Mulliken charges. Check your input, if    ***
 *** this warning persists or try a different method!                     ***

    41 OT CG       0.47E+00   19.2     0.00000711     -1335.5766460527 -2.13E-06

 *** WARNING in dft_plus_u.F:1457 :: DFT+U energy contibution is negative ***
 *** possibly due to unphysical Mulliken charges. Check your input, if    ***
 *** this warning persists or try a different method!                     ***

    42 OT LS       0.50E+00    9.7                    -1335.5766478022

 *** WARNING in dft_plus_u.F:1457 :: DFT+U energy contibution is negative ***
 *** possibly due to unphysical Mulliken charges. Check your input, if    ***
 *** this warning persists or try a different method!                     ***

    43 OT CG       0.50E+00   19.3     0.00000640     -1335.5766478078 -1.76E-06

 *** WARNING in dft_plus_u.F:1457 :: DFT+U energy contibution is negative ***
 *** possibly due to unphysical Mulliken charges. Check your input, if    ***
 *** this warning persists or try a different method!                     ***

    44 OT LS       0.54E+00    9.7                    -1335.5766493533

 *** WARNING in dft_plus_u.F:1457 :: DFT+U energy contibution is negative ***
 *** possibly due to unphysical Mulliken charges. Check your input, if    ***
 *** this warning persists or try a different method!                     ***

    45 OT CG       0.54E+00   19.3     0.00000586     -1335.5766493640 -1.56E-06

 *** WARNING in dft_plus_u.F:1457 :: DFT+U energy contibution is negative ***
 *** possibly due to unphysical Mulliken charges. Check your input, if    ***
 *** this warning persists or try a different method!                     ***

    46 OT LS       0.39E+00    9.7                    -1335.5766501593

 *** WARNING in dft_plus_u.F:1457 :: DFT+U energy contibution is negative ***
 *** possibly due to unphysical Mulliken charges. Check your input, if    ***
 *** this warning persists or try a different method!                     ***

    47 OT CG       0.39E+00   19.2     0.00000467     -1335.5766503013 -9.37E-07

 *** WARNING in dft_plus_u.F:1457 :: DFT+U energy contibution is negative ***
 *** possibly due to unphysical Mulliken charges. Check your input, if    ***
 *** this warning persists or try a different method!                     ***

    48 OT LS       0.42E+00    9.9                    -1335.5766509384

 *** WARNING in dft_plus_u.F:1457 :: DFT+U energy contibution is negative ***
 *** possibly due to unphysical Mulliken charges. Check your input, if    ***
 *** this warning persists or try a different method!                     ***

    49 OT CG       0.42E+00   19.1     0.00000381     -1335.5766509412 -6.40E-07

 *** WARNING in dft_plus_u.F:1457 :: DFT+U energy contibution is negative ***
 *** possibly due to unphysical Mulliken charges. Check your input, if    ***
 *** this warning persists or try a different method!                     ***

    50 OT LS       0.49E+00    9.8                    -1335.5766514253

 *** WARNING in dft_plus_u.F:1457 :: DFT+U energy contibution is negative ***
 *** possibly due to unphysical Mulliken charges. Check your input, if    ***
 *** this warning persists or try a different method!                     ***

    51 OT CG       0.49E+00   19.1     0.00000322     -1335.5766514347 -4.93E-07

 *** WARNING in dft_plus_u.F:1457 :: DFT+U energy contibution is negative ***
 *** possibly due to unphysical Mulliken charges. Check your input, if    ***
 *** this warning persists or try a different method!                     ***

    52 OT LS       0.47E+00    9.7                    -1335.5766517711

 *** WARNING in dft_plus_u.F:1457 :: DFT+U energy contibution is negative ***
 *** possibly due to unphysical Mulliken charges. Check your input, if    ***
 *** this warning persists or try a different method!                     ***

    53 OT CG       0.47E+00   19.2     0.00000265     -1335.5766517718 -3.37E-07

 *** WARNING in dft_plus_u.F:1457 :: DFT+U energy contibution is negative ***
 *** possibly due to unphysical Mulliken charges. Check your input, if    ***
 *** this warning persists or try a different method!                     ***

    54 OT LS       0.46E+00    9.8                    -1335.5766519980

 *** WARNING in dft_plus_u.F:1457 :: DFT+U energy contibution is negative ***
 *** possibly due to unphysical Mulliken charges. Check your input, if    ***
 *** this warning persists or try a different method!                     ***

    55 OT CG       0.46E+00   19.5     0.00000247     -1335.5766519980 -2.26E-07

 *** WARNING in dft_plus_u.F:1457 :: DFT+U energy contibution is negative ***
 *** possibly due to unphysical Mulliken charges. Check your input, if    ***
 *** this warning persists or try a different method!                     ***

    56 OT LS       0.46E+00    9.8                    -1335.5766521949

 *** WARNING in dft_plus_u.F:1457 :: DFT+U energy contibution is negative ***
 *** possibly due to unphysical Mulliken charges. Check your input, if    ***
 *** this warning persists or try a different method!                     ***

    57 OT CG       0.46E+00   19.2     0.00000215     -1335.5766521949 -1.97E-07

 *** WARNING in dft_plus_u.F:1457 :: DFT+U energy contibution is negative ***
 *** possibly due to unphysical Mulliken charges. Check your input, if    ***
[...]
 flops    19 x    13 x     2             31080504     100.0%      0.0%      0.0%
 flops     2 x    13 x    19             31080504     100.0%      0.0%      0.0%
 flops     8 x    19 x    15             31281600     100.0%      0.0%      0.0%
 flops    19 x     8 x    15             31281600     100.0%      0.0%      0.0%
 flops    45 x    13 x    31             31373550     100.0%      0.0%      0.0%
 flops   112 x    13 x    31             32497920     100.0%      0.0%      0.0%
 flops    32 x    13 x    20             34544640     100.0%      0.0%      0.0%
 flops    19 x    15 x     2             35526960     100.0%      0.0%      0.0%
 flops     2 x    15 x    19             35526960     100.0%      0.0%      0.0%
 flops   112 x    15 x    31             37497600     100.0%      0.0%      0.0%
 flops    47 x    15 x    31             37809150     100.0%      0.0%      0.0%
 flops     8 x     8 x    13             47290880     100.0%      0.0%      0.0%
 flops    19 x    13 x    19             49210798     100.0%      0.0%      0.0%
 flops    32 x    15 x    31             51484800     100.0%      0.0%      0.0%
 flops    64 x    15 x    31             51484800     100.0%      0.0%      0.0%
 flops     8 x    13 x     2             52346112     100.0%      0.0%      0.0%
 flops     2 x    13 x     8             52346112     100.0%      0.0%      0.0%
 flops    47 x    15 x    32             54144000     100.0%      0.0%      0.0%
 flops    47 x    32 x    15             54144000     100.0%      0.0%      0.0%
 flops     8 x     8 x    15             54566400     100.0%      0.0%      0.0%
 flops    19 x    15 x    19             56251020     100.0%      0.0%      0.0%
 flops    45 x    32 x    13             57807360     100.0%      0.0%      0.0%
 flops    45 x    13 x    32             57807360     100.0%      0.0%      0.0%
 flops     8 x    15 x     2             59834880     100.0%      0.0%      0.0%
 flops     2 x    15 x     8             59834880     100.0%      0.0%      0.0%
 flops    32 x    13 x    31             66930240     100.0%      0.0%      0.0%
 flops    45 x    32 x    12             71746560     100.0%      0.0%      0.0%
 flops    64 x    32 x    15             73728000     100.0%      0.0%      0.0%
 flops    32 x    15 x    32             73728000     100.0%      0.0%      0.0%
 flops    32 x    32 x    15             73728000     100.0%      0.0%      0.0%
 flops    64 x    15 x    32             73728000     100.0%      0.0%      0.0%
 flops   107 x    32 x    12             79875072     100.0%      0.0%      0.0%
 flops   110 x    32 x    12             82114560     100.0%      0.0%      0.0%
 flops    19 x    13 x     8             82881344     100.0%      0.0%      0.0%
 flops     8 x    13 x    19             82881344     100.0%      0.0%      0.0%
 flops   107 x    32 x    13             85819136     100.0%      0.0%      0.0%
 flops   107 x    13 x    32             85819136     100.0%      0.0%      0.0%
 flops   110 x    13 x    32             88225280     100.0%      0.0%      0.0%
 flops   110 x    32 x    13             88225280     100.0%      0.0%      0.0%
 flops    47 x    32 x    12             93669120     100.0%      0.0%      0.0%
 flops    19 x    15 x     8             94738560     100.0%      0.0%      0.0%
 flops     8 x    15 x    19             94738560     100.0%      0.0%      0.0%
 flops    32 x    13 x    32            123322368     100.0%      0.0%      0.0%
 flops    32 x    32 x    13            123322368     100.0%      0.0%      0.0%
 flops   107 x    32 x    15            123777600     100.0%      0.0%      0.0%
 flops   107 x    15 x    32            123777600     100.0%      0.0%      0.0%
 flops   110 x    15 x    32            127248000     100.0%      0.0%      0.0%
 flops   110 x    32 x    15            127248000     100.0%      0.0%      0.0%
 flops    64 x    32 x    12            127549440     100.0%      0.0%      0.0%
 flops     8 x    13 x     8            139589632     100.0%      0.0%      0.0%
 flops     2 x     2 x    32            145635840     100.0%      0.0%      0.0%
 flops    45 x    32 x    20            159436800     100.0%      0.0%      0.0%
 flops     8 x    15 x     8            159559680     100.0%      0.0%      0.0%
 flops   112 x    32 x    12            167215104     100.0%      0.0%      0.0%
 flops   107 x    32 x    20            177500160     100.0%      0.0%      0.0%
 flops   112 x    13 x    32            179658752     100.0%      0.0%      0.0%
 flops   112 x    32 x    13            179658752     100.0%      0.0%      0.0%
 flops   110 x    32 x    20            182476800     100.0%      0.0%      0.0%
 flops    47 x    32 x    20            208153600     100.0%      0.0%      0.0%
 flops    19 x     2 x    32            225227520     100.0%      0.0%      0.0%
 flops     2 x    19 x    32            225227520     100.0%      0.0%      0.0%
 flops   112 x    15 x    32            259123200     100.0%      0.0%      0.0%
 flops   112 x    32 x    15            259123200     100.0%      0.0%      0.0%
 flops    32 x    32 x    12            280608768     100.0%      0.0%      0.0%
 flops    64 x    32 x    20            283443200     100.0%      0.0%      0.0%
 flops    45 x    32 x    31            308908800     100.0%      0.0%      0.0%
 flops   107 x    32 x    31            343906560     100.0%      0.0%      0.0%
 flops   110 x    32 x    31            353548800     100.0%      0.0%      0.0%
 flops   112 x    32 x    20            371589120     100.0%      0.0%      0.0%
 flops     8 x     2 x    32            379330560     100.0%      0.0%      0.0%
 flops     2 x     8 x    32            379330560     100.0%      0.0%      0.0%
 flops    47 x    32 x    31            403297600     100.0%      0.0%      0.0%
 flops    19 x    19 x    32            407554560     100.0%      0.0%      0.0%
 flops     2 x    32 x     2            432617472     100.0%      0.0%      0.0%
 flops    64 x    32 x    31            549171200     100.0%      0.0%      0.0%
 flops    45 x    32 x    32            569180160     100.0%      0.0%      0.0%
 flops    47 x    32 x    32            577536000     100.0%      0.0%      0.0%
 flops     8 x    19 x    32            600606720     100.0%      0.0%      0.0%
 flops    19 x     8 x    32            600606720     100.0%      0.0%      0.0%
 flops    32 x    32 x    20            623575040     100.0%      0.0%      0.0%
 flops    19 x    32 x     2            684977664     100.0%      0.0%      0.0%
 flops     2 x    32 x    19            684977664     100.0%      0.0%      0.0%
 flops   112 x    32 x    31            719953920     100.0%      0.0%      0.0%
 flops    64 x    32 x    32            786432000     100.0%      0.0%      0.0%
 flops     8 x     8 x    32           1047674880     100.0%      0.0%      0.0%
 flops    19 x    32 x    19           1084547968     100.0%      0.0%      0.0%
 flops     8 x    32 x     2           1153646592     100.0%      0.0%      0.0%
 flops     2 x    32 x     8           1153646592     100.0%      0.0%      0.0%
 flops    32 x    32 x    31           1208176640     100.0%      0.0%      0.0%
 flops    19 x    32 x     8           1826607104     100.0%      0.0%      0.0%
 flops     8 x    32 x    19           1826607104     100.0%      0.0%      0.0%
 flops    32 x    32 x    32           2000683008     100.0%      0.0%      0.0%
 flops   107 x    32 x    32           2165282816     100.0%      0.0%      0.0%
 flops   110 x    32 x    32           2225991680     100.0%      0.0%      0.0%
 flops     8 x    32 x     8           3076390912     100.0%      0.0%      0.0%
 flops   112 x    32 x    32           4532928512     100.0%      0.0%      0.0%
 flops inhomo. stacks                  6822159584     100.0%      0.0%      0.0%
 flops total                        47.242425E+09     100.0%      0.0%      0.0%
 flops max/rank                      2.504179E+09     100.0%      0.0%      0.0%
 matmuls inhomo. stacks                     73568     100.0%      0.0%      0.0%
 matmuls total                            9571900     100.0%      0.0%      0.0%
 number of processed stacks               1117201     100.0%      0.0%      0.0%
 average stack size                                     8.6       0.0       0.0
 marketing flops                    49.380303E+09
 -------------------------------------------------------------------------------
 # multiplications                           1883
 max memory usage/rank               1.474273E+09
 # max total images/rank                        5
 # max 3D layers                                1
 # MPI messages exchanged                 4745160
 MPI messages size (bytes):
  total size                        15.764984E+09
  min size                           0.000000E+00
  max size                          34.944000E+03
  average size                       3.322329E+03
 MPI breakdown and total messages size (bytes):
             size <=      128             3055050                        0
       128 < size <=     8192             1217664               6939921960
      8192 < size <=    32768              472338               8821387584
     32768 < size <=   131072                 108                  3714984
    131072 < size <=  4194304                   0                        0
   4194304 < size <= 16777216                   0                        0
  16777216 < size                               0                        0
 -------------------------------------------------------------------------------

 *** WARNING in dbcsr/mm/dbcsr_mm.F:268 :: Using a non-square number of ***
 *** MPI ranks might lead to poor performance.                          ***
 *** Used ranks: 40                                                     ***
 *** Suggested: 36 81                                                   ***

 -------------------------------------------------------------------------------

 MEMORY| Estimated peak process memory [MiB]                                1407

 -------------------------------------------------------------------------------
 ----                             MULTIGRID INFO                            ----
 -------------------------------------------------------------------------------
 count for grid        1:        1213553          cutoff [a.u.]          325.00
 count for grid        2:         509230          cutoff [a.u.]          108.33
 count for grid        3:         312753          cutoff [a.u.]           36.11
 count for grid        4:         105433          cutoff [a.u.]           12.04
 count for grid        5:           3600          cutoff [a.u.]            4.01
 count for grid        6:              0          cutoff [a.u.]            1.34
 count for grid        7:              0          cutoff [a.u.]            0.45
 count for grid        8:              0          cutoff [a.u.]            0.15
 count for grid        9:              0          cutoff [a.u.]            0.05
 count for grid       10:              0          cutoff [a.u.]            0.02
 total gridlevel count  :        2144569

 -------------------------------------------------------------------------------
 -                                                                             -
 -                         MESSAGE PASSING PERFORMANCE                         -
 -                                                                             -
 -------------------------------------------------------------------------------

 ROUTINE             CALLS      AVE VOLUME [Bytes]
 MP_Group               31
 MP_Bcast             1032                 314380.
 MP_Allreduce        11296                    486.
 MP_Sync              1270
 MP_Alltoall          8702               19391614.
 MP_ISendRecv        65520                 123959.
 MP_Wait            267476
 MP_ISend           270874                  54182.
 MP_IRecv           273458                  53435.
 MP_Recv                72                  58212.
 MP_Memory          247388
 -------------------------------------------------------------------------------


 -------------------------------------------------------------------------------
 -                                                                             -
 -                           R E F E R E N C E S                               -
 -                                                                             -
 -------------------------------------------------------------------------------
 
 CP2K version 6.1, the CP2K developers group (2018).
 CP2K is freely available from https://www.cp2k.org/ .

 Schuett, Ole; Messmer, Peter; Hutter, Juerg; VandeVondele, Joost. 
 Electronic Structure Calculations on Graphics Processing Units, John Wiley & Sons, Ltd, 173-190 (2016). 
 GPU-Accelerated Sparse Matrix-Matrix Multiplication for Linear Scaling Density Functional Theory.
 http://dx.doi.org/10.1002/9781118670712.ch8


 Borstnik, U; VandeVondele, J; Weber, V; Hutter, J. 
 PARALLEL COMPUTING, 40 (5-6), 47-58 (2014). 
 Sparse matrix multiplication: The distributed block-compressed sparse
 row library.
 http://dx.doi.org/10.1016/j.parco.2014.03.012


 Hutter, J; Iannuzzi, M; Schiffmann, F; VandeVondele, J. 
 WILEY INTERDISCIPLINARY REVIEWS-COMPUTATIONAL MOLECULAR SCIENCE, 4 (1), 15-25 (2014). 
 CP2K: atomistic simulations of condensed matter systems.
 http://dx.doi.org/10.1002/wcms.1159


 Krack, M. 
 THEORETICAL CHEMISTRY ACCOUNTS, 114 (1-3), 145-152 (2005). 
 Pseudopotentials for H to Kr optimized for gradient-corrected
 exchange-correlation functionals.
 http://dx.doi.org/10.1007/s00214-005-0655-y


 VandeVondele, J; Krack, M; Mohamed, F; Parrinello, M; Chassaing, T;
 Hutter, J. COMPUTER PHYSICS COMMUNICATIONS, 167 (2), 103-128 (2005). 
 QUICKSTEP: Fast and accurate density functional calculations using a
 mixed Gaussian and plane waves approach.
 http://dx.doi.org/10.1016/j.cpc.2004.12.014


 Frigo, M; Johnson, SG. 
 PROCEEDINGS OF THE IEEE, 93 (2), 216-231 (2005). 
 The design and implementation of FFTW3.
 http://dx.doi.org/10.1109/JPROC.2004.840301


 VandeVondele, J; Hutter, J. 
 JOURNAL OF CHEMICAL PHYSICS, 118 (10), 4365-4369 (2003). 
 An efficient orbital transformation method for electronic structure
 calculations.
 http://dx.doi.org/10.1063/1.1543154


 Hartwigsen, C; Goedecker, S; Hutter, J. 
 PHYSICAL REVIEW B, 58 (7), 3641-3662 (1998). 
 Relativistic separable dual-space Gaussian pseudopotentials from H to Rn.
 http://dx.doi.org/10.1103/PhysRevB.58.3641


 Dudarev, SL; Botton, GA; Savrasov, SY; Humphreys, CJ; Sutton, AP. 
 PHYSICAL REVIEW B, 57 (3), 1505-1509 (1998). 
 Electron-energy-loss spectra and the structural stability of
 nickel oxide: An LSDA+U study.
 http://dx.doi.org/10.1103/PhysRevB.57.1505


 Lippert, G; Hutter, J; Parrinello, M. 
 MOLECULAR PHYSICS, 92 (3), 477-487 (1997). 
 A hybrid Gaussian and plane wave density functional scheme.
 http://dx.doi.org/10.1080/002689797170220


 Dudarev, SL; Manh, DN; Sutton, AP. 
 PHILOSOPHICAL MAGAZINE B, 75 (5), 613-628 (1997). 
 Effect of Mott-Hubbard correlations on the electronic
 structure and structural stability of uranium dioxide.
 http://dx.doi.org/10.1080/13642819708202343


 Goedecker, S; Teter, M; Hutter, J. 
 PHYSICAL REVIEW B, 54 (3), 1703-1710 (1996). 
 Separable dual-space Gaussian pseudopotentials.
 http://dx.doi.org/10.1103/PhysRevB.54.1703


 BECKE, AD. PHYSICAL REVIEW A, 38 (6), 3098-3100 (1988). 
 DENSITY-FUNCTIONAL EXCHANGE-ENERGY APPROXIMATION WITH CORRECT
 ASYMPTOTIC-BEHAVIOR.
 http://dx.doi.org/10.1103/PhysRevA.38.3098


 LEE, CT; YANG, WT; PARR, RG. 
 PHYSICAL REVIEW B, 37 (2), 785-789 (1988). 
 DEVELOPMENT OF THE COLLE-SALVETTI CORRELATION-ENERGY FORMULA INTO A
 FUNCTIONAL OF THE ELECTRON-DENSITY.
 http://dx.doi.org/10.1103/PhysRevB.37.785


 -------------------------------------------------------------------------------
 -                                                                             -
 -                                T I M I N G                                  -
 -                                                                             -
 -------------------------------------------------------------------------------
 SUBROUTINE                       CALLS  ASD         SELF TIME        TOTAL TIME
                                MAXIMUM       AVERAGE  MAXIMUM  AVERAGE  MAXIMUM
 CP2K                                 1  1.0    0.032    0.048 1016.748 1016.749
 qs_energies                          1  2.0    0.000    0.000 1015.025 1015.025
 scf_env_do_scf                       1  3.0    0.000    0.000 1008.870 1008.870
 scf_env_do_scf_inner_loop           69  4.0    0.003    0.006  993.590  993.602
 pw_transfer                       3108  9.3    0.245    0.291  738.979  744.604
 fft_wrap_pw1pw2                   2970 10.3    0.041    0.047  733.317  738.948
 qs_ks_update_qs_env                 70  5.0    0.002    0.003  721.959  721.972
 rebuild_ks_matrix                   69  6.0    0.000    0.000  721.946  721.958
 qs_ks_build_kohn_sham_matrix        69  7.0    0.019    0.022  721.946  721.958
 fft_wrap_pw1pw2_330               1080 11.9   57.259   66.103  701.705  707.115
 fft3d_ps                          2970 12.3  312.997  324.011  577.325  589.334
 qs_vxc_create                       69  8.0    0.002    0.002  571.235  572.203
 xc_vxc_pw_create                    35  9.0    9.501   11.273  394.304  395.272
 xc_rho_set_and_dset_create          69 10.0   14.690   16.355  359.217  362.650
 qs_rho_update_rho                   70  5.0    0.001    0.001  287.513  287.521
 calculate_rho_elec                 140  6.0    7.264   25.329  287.513  287.520
 density_rs2pw                      140  7.0    0.018    0.020  267.063  272.673
 x_to_yz                            939 14.4   78.811   82.185  170.827  178.598
 xc_exc_calc                         34  9.0    0.390    0.432  176.929  176.929
 mp_alltoall_z22v                  2970 14.3  155.610  168.746  155.610  168.746
 yz_to_x                            981 12.6   29.689   32.949   93.259   99.203
 sum_up_and_integrate                35  8.0    1.339    1.484   98.442   98.445
 rs_pw_transfer                    2104  9.0    0.028    0.035   94.149   98.231
 integrate_v_rspace                  70  9.0    1.873    6.152   97.103   97.171
 potential_pw2rs                     70 10.0    0.116    0.162   90.760   90.849
 pw_scatter_p                      1289 13.5   63.150   68.254   63.150   68.254
 pw_derive                          624 10.7   45.910   46.823   45.910   46.823
 rs_pw_transfer_RS2PW_330           142  9.0   18.482   22.162   37.645   43.441
 mp_waitany                       18656 11.0   28.365   36.687   28.365   36.687
 pw_gather_p                       1681 11.4   33.124   35.892   33.124   35.892
 pw_copy                           1460 10.8   28.024   29.124   28.024   29.124
 fft_wrap_pw1pw2_110                210 11.0    2.116    2.336   25.575   28.694
 pw_axpy                           1959  8.4   22.365   22.962   22.365   22.962
 rs_pw_transfer_PW2RS_330            72 11.9   11.507   12.680   20.407   21.704
 -------------------------------------------------------------------------------

 The number of warnings for this run is : 70
 
 -------------------------------------------------------------------------------
  **** **** ******  **  PROGRAM ENDED AT                 2019-08-08 13:03:26.450
 ***** ** ***  *** **   PROGRAM RAN ON            cpn-p28-34.cbls.ccr.buffalo.ed
 **    ****   ******    PROGRAM RAN BY                                  pavankum
 ***** **    ** ** **   PROGRAM PROCESS ID                                 83063
  **** **  *******  **  PROGRAM STOPPED IN /projects/academic/mdupuis2/pavan/VAB
                                           _calculation/results_for_paper/3.1D_F
                                           e_7units/blyp_plusU8/point_0.7
