 DBCSR| Multiplication driver                                               BLAS
 DBCSR| Multrec recursion limit                                              512
 DBCSR| Multiplication stack size                                           1000
 DBCSR| Maximum elements for images                                    UNLIMITED
 DBCSR| Multiplicative factor virtual images                                   1
 DBCSR| Multiplication size stacks                                             3
 DBCSR| Number of 3D layers                                               SINGLE
 DBCSR| Use MPI memory allocation                                              T
 DBCSR| Use RMA algorithm                                                      F
 DBCSR| Use Communication thread                                               T
 DBCSR| Communication thread load                                             87


  **** **** ******  **  PROGRAM STARTED AT               2019-07-25 12:50:34.901
 ***** ** ***  *** **   PROGRAM STARTED ON        cpn-p28-39.cbls.ccr.buffalo.ed
 **    ****   ******    PROGRAM STARTED BY                              pavankum
 ***** **    ** ** **   PROGRAM PROCESS ID                                 98030
  **** **  *******  **  PROGRAM STARTED IN /projects/academic/mdupuis2/pavan/VAB
                                           _calculation/results_for_paper/2.Zn2+
                                           /gapw_pseudo/r_7

 CP2K| version string:                                          CP2K version 6.1
 CP2K| source code revision number:                                    svn:18464
 CP2K| cp2kflags: libint fftw3 libxc parallel mpi3 scalapack libderiv_max_am1=5 
 CP2K|            libint_max_am=6
 CP2K| is freely available from                            https://www.cp2k.org/
 CP2K| Program compiled at                          Fri Nov 30 14:17:09 EST 2018
 CP2K| Program compiled on                       srv-p22-12.cbls.ccr.buffalo.edu
 CP2K| Program compiled for                                                local
 CP2K| Data directory path    /projects/academic/mdupuis2/pavan/cp2k/cp2k-6.1/da
 CP2K| Input file name                                                 input.inp

 GLOBAL| Force Environment number                                              3
 GLOBAL| Basis set file name                                           BASIS_SET
 GLOBAL| Potential file name                                           POTENTIAL
 GLOBAL| MM Potential file name                                     MM_POTENTIAL
 GLOBAL| Coordinate file name                                     ./geometry.xyz
 GLOBAL| Force Environment number                                              1
 GLOBAL| Basis set file name            /projects/academic/mdupuis2/pavan/BASIS_
 GLOBAL| Potential file name            /projects/academic/mdupuis2/pavan/POTENT
 GLOBAL| MM Potential file name                                     MM_POTENTIAL
 GLOBAL| Coordinate file name                                       ./state0.xyz
 GLOBAL| Force Environment number                                              2
 GLOBAL| Basis set file name            /projects/academic/mdupuis2/pavan/BASIS_
 GLOBAL| Potential file name            /projects/academic/mdupuis2/pavan/POTENT
 GLOBAL| MM Potential file name                                     MM_POTENTIAL
 GLOBAL| Coordinate file name                                       ./state1.xyz
 GLOBAL| Method name                                                        CP2K
 GLOBAL| Project name                                                      p_zn_
 GLOBAL| Preferred FFT library                                             FFTW3
 GLOBAL| Preferred diagonalization lib.                                       SL
 GLOBAL| Run type                                                         ENERGY
 GLOBAL| All-to-all communication in single precision                          F
 GLOBAL| FFTs using library dependent lengths                                  T
 GLOBAL| Global print level                                               MEDIUM
 GLOBAL| Total number of message passing processes                            16
 GLOBAL| Number of threads for this process                                    1
 GLOBAL| This output is from process                                           0
 GLOBAL| CPU model name :  Intel(R) Xeon(R) CPU E5-2650 v3 @ 2.30GHz

 MEMORY| system memory details [Kb]
 MEMORY|                        rank 0           min           max       average
 MEMORY| MemTotal            131740876     131740876     131740876     131740876
 MEMORY| MemFree             127286484     127286484     127286484     127286484
 MEMORY| Buffers                349632        349632        349632        349632
 MEMORY| Cached                 783240        783240        783240        783240
 MEMORY| Slab                   324704        324704        324704        324704
 MEMORY| SReclaimable           161692        161692        161692        161692
 MEMORY| MemLikelyFree       128581048     128581048     128581048     128581048


 *** Fundamental physical constants (SI units) ***

 *** Literature: B. J. Mohr and B. N. Taylor,
 ***             CODATA recommended values of the fundamental physical
 ***             constants: 2006, Web Version 5.1
 ***             http://physics.nist.gov/constants

 Speed of light in vacuum [m/s]                             2.99792458000000E+08
 Magnetic constant or permeability of vacuum [N/A**2]       1.25663706143592E-06
 Electric constant or permittivity of vacuum [F/m]          8.85418781762039E-12
 Planck constant (h) [J*s]                                  6.62606896000000E-34
 Planck constant (h-bar) [J*s]                              1.05457162825177E-34
 Elementary charge [C]                                      1.60217648700000E-19
 Electron mass [kg]                                         9.10938215000000E-31
 Electron g factor [ ]                                     -2.00231930436220E+00
 Proton mass [kg]                                           1.67262163700000E-27
 Fine-structure constant                                    7.29735253760000E-03
 Rydberg constant [1/m]                                     1.09737315685270E+07
 Avogadro constant [1/mol]                                  6.02214179000000E+23
 Boltzmann constant [J/K]                                   1.38065040000000E-23
 Atomic mass unit [kg]                                      1.66053878200000E-27
 Bohr radius [m]                                            5.29177208590000E-11

 *** Conversion factors ***

 [u] -> [a.u.]                                              1.82288848426455E+03
 [Angstrom] -> [Bohr] = [a.u.]                              1.88972613288564E+00
 [a.u.] = [Bohr] -> [Angstrom]                              5.29177208590000E-01
 [a.u.] -> [s]                                              2.41888432650478E-17
 [a.u.] -> [fs]                                             2.41888432650478E-02
 [a.u.] -> [J]                                              4.35974393937059E-18
 [a.u.] -> [N]                                              8.23872205491840E-08
 [a.u.] -> [K]                                              3.15774647902944E+05
 [a.u.] -> [kJ/mol]                                         2.62549961709828E+03
 [a.u.] -> [kcal/mol]                                       6.27509468713739E+02
 [a.u.] -> [Pa]                                             2.94210107994716E+13
 [a.u.] -> [bar]                                            2.94210107994716E+08
 [a.u.] -> [atm]                                            2.90362800883016E+08
 [a.u.] -> [eV]                                             2.72113838565563E+01
 [a.u.] -> [Hz]                                             6.57968392072181E+15
 [a.u.] -> [1/cm] (wave numbers)                            2.19474631370540E+05
 [a.u./Bohr**2] -> [1/cm]                                   5.14048714338585E+03
 
 MIXED_ENV| Number of created MPI groups:                                      1
 MIXED_ENV| Task to group correspondence:
  (   0 :    0)  (   1 :    0)  (   2 :    0)  (   3 :    0)
  (   4 :    0)  (   5 :    0)  (   6 :    0)  (   7 :    0)
  (   8 :    0)  (   9 :    0)  (  10 :    0)  (  11 :    0)
  (  12 :    0)  (  13 :    0)  (  14 :    0)  (  15 :    0)
          ----------------------------------------------------------------------
 COLVARS| COLVAR INPUT INDEX:        1
 COLVARS| ENERGY          >>> ATOMS:                                        all!
          ----------------------------------------------------------------------

 CELL_TOP| Volume [angstrom^3]:                                         8000.000
 CELL_TOP| Vector a [angstrom    20.000     0.000     0.000    |a| =      20.000
 CELL_TOP| Vector b [angstrom     0.000    20.000     0.000    |b| =      20.000
 CELL_TOP| Vector c [angstrom     0.000     0.000    20.000    |c| =      20.000
 CELL_TOP| Angle (b,c), alpha [degree]:                                   90.000
 CELL_TOP| Angle (a,c), beta  [degree]:                                   90.000
 CELL_TOP| Angle (a,b), gamma [degree]:                                   90.000
 CELL_TOP| Numerically orthorhombic:                                         YES

 GENERATE|  Preliminary Number of Bonds generated:                             0
 GENERATE|  Achieved consistency in connectivity generation.

 CELL| Volume [angstrom^3]:                                             8000.000
 CELL| Vector a [angstrom]:      20.000     0.000     0.000    |a| =      20.000
 CELL| Vector b [angstrom]:       0.000    20.000     0.000    |b| =      20.000
 CELL| Vector c [angstrom]:       0.000     0.000    20.000    |c| =      20.000
 CELL| Angle (b,c), alpha [degree]:                                       90.000
 CELL| Angle (a,c), beta  [degree]:                                       90.000
 CELL| Angle (a,b), gamma [degree]:                                       90.000
 CELL| Numerically orthorhombic:                                             YES

 CELL_REF| Volume [angstrom^3]:                                         8000.000
 CELL_REF| Vector a [angstrom    20.000     0.000     0.000    |a| =      20.000
 CELL_REF| Vector b [angstrom     0.000    20.000     0.000    |b| =      20.000
 CELL_REF| Vector c [angstrom     0.000     0.000    20.000    |c| =      20.000
 CELL_REF| Angle (b,c), alpha [degree]:                                   90.000
 CELL_REF| Angle (a,c), beta  [degree]:                                   90.000
 CELL_REF| Angle (a,b), gamma [degree]:                                   90.000
 CELL_REF| Numerically orthorhombic:                                         YES


 MOLECULE KIND INFORMATION


 All atoms are their own molecule, skipping detailed information
 nspins, nimgs, gapw_xc           2           1 F 

 ####### CHECKS ON A and B #######
  E_A before:  -116.03164581818538     
  E_B before:  -116.03164581818571     
 ####### - #######
##Inside build_kohn_sham_matrix() before doing any function calls
 i). ELECTRON ONLY CALLS
 1. Electron_pw   128.71522556173520     
 2. Electron_1c  -6.2466712257279937     
 ########## After 1st poisson call pure hartree  (sum of above two quantities) ##########   122.46855433600720     
 ########################
ii). NUCLEAR ONLY CALLS
 1. Nuclear_pw   303.81281303764547     
 2. Nuclear_1c  -133.62629575339506     
iii). REGULAR CALL (ELECTRON+NUCLEAR)
 1. Hartree_pw   66.847339921052082     
 2. Hartree_1c  -60.802090736310831     
 Regular: Before call to qs_vxc Regular_exc, exc1   0.0000000000000000        0.0000000000000000     
 Regular: After call to qs_vxc_create Regular_exc, exc1   0.0000000000000000        0.0000000000000000     
 iv). EXCHANGE ENERGY   -12.837565437848099     
 v). POTENTIAL ENERGY FROM CORE HAMILTONIAN   -117.64153174140966     
 vi). KINETIC ENERGY    167.70279047216619     
 vii). SELF ENERGY   -159.30058829583706     
      
 E_NUC is    10.885928988413355     
      
IN build_kohn_sham_matrix() CALLING qs_ks_atom(),updates single atom contributions due to gapw
Inside build_kohn_sham_matrix() after doing all function calls and evaluating energy
 CHECK ON A IS DONE, E_A after passing modified PA_hat density:  -116.03164581818739     
##Inside build_kohn_sham_matrix() before doing any function calls
 i). ELECTRON ONLY CALLS
 1. Electron_pw   128.71522556208367     
 2. Electron_1c  -6.2466712257511041     
 ########## After 1st poisson call pure hartree  (sum of above two quantities) ##########   122.46855433633257     
 ########################
ii). NUCLEAR ONLY CALLS
 1. Nuclear_pw   303.81281303764547     
 2. Nuclear_1c  -133.62629575339506     
iii). REGULAR CALL (ELECTRON+NUCLEAR)
 1. Hartree_pw   66.847339921001947     
 2. Hartree_1c  -60.802090736190017     
 Regular: Before call to qs_vxc Regular_exc, exc1   0.0000000000000000        0.0000000000000000     
 Regular: After call to qs_vxc_create Regular_exc, exc1   0.0000000000000000        0.0000000000000000     
 iv). EXCHANGE ENERGY   -12.837565438041960     
 v). POTENTIAL ENERGY FROM CORE HAMILTONIAN   -117.64153174162978     
 vi). KINETIC ENERGY    167.70279047250918     
 vii). SELF ENERGY   -159.30058829583706     
      
 E_NUC is    10.885928988413355     
      
IN build_kohn_sham_matrix() CALLING qs_ks_atom(),updates single atom contributions due to gapw
Inside build_kohn_sham_matrix() after doing all function calls and evaluating energy
 CHECK ON B IS DONE, E_B after passing modified PB_hat density:  -116.03164581818768     
 DOING ANTI-SYMMETRIC PART OF VAB
##Inside build_kohn_sham_matrix() before doing any function calls
 i). ELECTRON ONLY CALLS
 1. Electron_pw   1.0261878283588609E-007
 2. Electron_1c   2.0611595707599419E-019
 ########## After 1st poisson call pure hartree  (sum of above two quantities) ##########   1.0261878283609221E-007
 ########################
ii). NUCLEAR ONLY CALLS
 1. Nuclear_pw   303.81281303764547     
 2. Nuclear_1c  -133.62629575339506     
iii). REGULAR CALL (ELECTRON+NUCLEAR)
 1. Hartree_pw   303.80987161374395     
 2. Hartree_1c  -133.62629553268957     
 Regular: Before call to qs_vxc Regular_exc, exc1   0.0000000000000000        0.0000000000000000     
 Regular: After call to qs_vxc_create Regular_exc, exc1   0.0000000000000000        0.0000000000000000     
 iv). EXCHANGE ENERGY   -1.8866788748273421E-002
 v). POTENTIAL ENERGY FROM CORE HAMILTONIAN    8.4281816515945854E-007
 vi). KINETIC ENERGY   -3.3838296504095738E-004
 vii). SELF ENERGY   -159.30058829583706     
      
 E_NUC is    10.885928988413355     
      
IN build_kohn_sham_matrix() CALLING qs_ks_atom(),updates single atom contributions due to gapw
Inside build_kohn_sham_matrix() after doing all function calls and evaluating energy
 DOING SYMMETRIC PART OF VAB
##Inside build_kohn_sham_matrix() before doing any function calls
 i). ELECTRON ONLY CALLS
 1. Electron_pw  0.13675734894636105     
 2. Electron_1c  -6.6454271730153475E-003
 ########## After 1st poisson call pure hartree  (sum of above two quantities) ##########  0.13011192177334568     
 ########################
 ehartree, ehartree_1c after multiplying with DTPROD/DHPROD  -4.1936114738144381       0.20377946674065700     
 dtprod, dhprod are -0.99999999999999833        3.2610877235598711E-002
 J2_AB is   -3.9898320070737805     
ii). NUCLEAR ONLY CALLS
 1. Nuclear_pw   303.81281303764547     
 2. Nuclear_1c  -133.62629575339506     
iii). REGULAR CALL (ELECTRON+NUCLEAR)
 1. Hartree_pw   292.02632339681372     
 2. Hartree_1c  -131.05391226519379     
 Regular: Before call to qs_vxc Regular_exc, exc1   0.0000000000000000        0.0000000000000000     
 Regular: After call to qs_vxc_create Regular_exc, exc1   0.0000000000000000        0.0000000000000000     
 iv). EXCHANGE ENERGY   -3.2447495023017428E-002
 v). POTENTIAL ENERGY FROM CORE HAMILTONIAN   -3.8371402744518184     
 vi). KINETIC ENERGY    5.4688237730024909     
 vii). SELF ENERGY   -159.30058829583706     
      
 E_NUC is    10.885928988413355     
      
IN build_kohn_sham_matrix() CALLING qs_ks_atom(),updates single atom contributions due to gapw
 ########################
 #########  ET  #########
 ------------------------
 E_NUC   10.885928988413355     
 HAA <a|H|a>  -126.91757480660084     
 HBB <b|H|b>  -126.91757480660107     
             
 <a|H1|b>   7.7125345758531623     
 <a|H2|b>  -3.5733848757491744     
 ...<a|J2|b>  -3.9898320070737805     
 ...<a|K2|b>  0.41644713132460609     
 HAB <a|H|b>   4.1391497001039879     
 SAB  -3.2610877235598655E-002
 VAB   2.5652185282831709E-004
  VAB in different units 
 ------------------------
          6.9803146049063772E-003 eV
          56.300039087982810      1/cm
         0.16096989158176120      kcal/mol
         0.67349802637808887      kJ/mol
          1687832710368.2441      Hertz
 ------------------------
 ------------------------
 E+  -126.91730992644170     
 E-  -126.91782295595510     
 (E+ - E-)/2   2.5651475670353539E-004
          6.9801215095310490E-003 eV
          56.298481668612190      1/cm
         0.16096543869626953      kcal/mol
         0.67347939550519165      kJ/mol
          1687786020110.1187      Hertz
 ------------------------
 ------------------------
Inside build_kohn_sham_matrix() after doing all function calls and evaluating energy
 NO FORCE_EVAL section calculated the dipole

 ENERGY| Total FORCE_EVAL ( MIXED ) energy (a.u.):             0.000000000000327


 -------------------------------------------------------------------------------
 -                                                                             -
 -                                DBCSR STATISTICS                             -
 -                                                                             -
 -------------------------------------------------------------------------------
 COUNTER                                    TOTAL       BLAS       SMM       ACC
 flops    25 x    12 x    25               120000     100.0%      0.0%      0.0%
 flops    25 x    11 x    25               220000     100.0%      0.0%      0.0%
 flops    25 x    25 x    11              2970000     100.0%      0.0%      0.0%
 flops    25 x    25 x    12              3240000     100.0%      0.0%      0.0%
 flops inhomo. stacks                           0       0.0%      0.0%      0.0%
 flops total                         6.550000E+06     100.0%      0.0%      0.0%
 flops max/rank                      2.240000E+06     100.0%      0.0%      0.0%
 matmuls inhomo. stacks                         0       0.0%      0.0%      0.0%
 matmuls total                                456     100.0%      0.0%      0.0%
 number of processed stacks                   456     100.0%      0.0%      0.0%
 average stack size                                     1.0       0.0       0.0
 marketing flops                     8.620000E+06
 -------------------------------------------------------------------------------
 # multiplications                            150
 max memory usage/rank             724.086784E+06
 # max total images/rank                        1
 # max 3D layers                                1
 # MPI messages exchanged                   14400
 MPI messages size (bytes):
  total size                         4.416000E+06
  min size                           0.000000E+00
  max size                           5.000000E+03
  average size                     306.666656E+00
 MPI breakdown and total messages size (bytes):
             size <=      128               12564                        0
       128 < size <=     8192                1836                  4416000
      8192 < size <=    32768                   0                        0
     32768 < size <=   131072                   0                        0
    131072 < size <=  4194304                   0                        0
   4194304 < size <= 16777216                   0                        0
  16777216 < size                               0                        0
 -------------------------------------------------------------------------------

 MEMORY| Estimated peak process memory [MiB]                                 692

 -------------------------------------------------------------------------------
 -                                                                             -
 -                         MESSAGE PASSING PERFORMANCE                         -
 -                                                                             -
 -------------------------------------------------------------------------------

 ROUTINE             CALLS      AVE VOLUME [Bytes]
 MP_Group              295
 MP_Bcast             1032                 716589.
 MP_Allreduce         4122                  13920.
 MP_Sync               821
 MP_Alltoall          7114                5043482.
 MP_ISendRecv        13260                  79105.
 MP_Wait             37618
 MP_comm_split         141
 MP_ISend            17320                 531968.
 MP_IRecv            17320                 531829.
 MP_Recv                24                   1200.
 MP_Memory            5936
 -------------------------------------------------------------------------------


 -------------------------------------------------------------------------------
 -                                                                             -
 -                           R E F E R E N C E S                               -
 -                                                                             -
 -------------------------------------------------------------------------------
 
 CP2K version 6.1, the CP2K developers group (2018).
 CP2K is freely available from https://www.cp2k.org/ .

 Schuett, Ole; Messmer, Peter; Hutter, Juerg; VandeVondele, Joost. 
 Electronic Structure Calculations on Graphics Processing Units, John Wiley & Sons, Ltd, 173-190 (2016). 
 GPU-Accelerated Sparse Matrix-Matrix Multiplication for Linear Scaling Density Functional Theory.
 http://dx.doi.org/10.1002/9781118670712.ch8


 Borstnik, U; VandeVondele, J; Weber, V; Hutter, J. 
 PARALLEL COMPUTING, 40 (5-6), 47-58 (2014). 
 Sparse matrix multiplication: The distributed block-compressed sparse
 row library.
 http://dx.doi.org/10.1016/j.parco.2014.03.012


 Hutter, J; Iannuzzi, M; Schiffmann, F; VandeVondele, J. 
 WILEY INTERDISCIPLINARY REVIEWS-COMPUTATIONAL MOLECULAR SCIENCE, 4 (1), 15-25 (2014). 
 CP2K: atomistic simulations of condensed matter systems.
 http://dx.doi.org/10.1002/wcms.1159


 Guidon, M; Hutter, J; VandeVondele, J. 
 JOURNAL OF CHEMICAL THEORY AND COMPUTATION, 5 (11), 3010-3021 (2009). 
 Robust Periodic Hartree-Fock Exchange for Large-Scale Simulations Using
 Gaussian Basis Sets.
 http://dx.doi.org/10.1021/ct900494g


 Guidon, M; Schiffmann, F; Hutter, J; VandeVondele, J. 
 JOURNAL OF CHEMICAL PHYSICS, 128 (21), 214104 (2008). 
 Ab initio molecular dynamics using hybrid density functionals.
 http://dx.doi.org/10.1063/1.2931945


 VandeVondele, J; Hutter, J. 
 JOURNAL OF CHEMICAL PHYSICS, 127 (11), 114105 (2007). 
 Gaussian basis sets for accurate calculations on molecular systems in
 gas and condensed phases.
 http://dx.doi.org/10.1063/1.2770708


 Genovese, L; Deutsch, T; Goedecker, S. 
 JOURNAL OF CHEMICAL PHYSICS, 127 (5), 054704 (2007). 
 Efficient and accurate three-dimensional Poisson solver for surface
 problems.
 http://dx.doi.org/10.1063/1.2754685


 Genovese, L; Deutsch, T; Neelov, A; Goedecker, S; Beylkin, G. 
 JOURNAL OF CHEMICAL PHYSICS, 125 (7), 074105 (2006). 
 Efficient solution of Poisson's equation with free boundary conditions.
 http://dx.doi.org/10.1063/1.2335442


 Krack, M. 
 THEORETICAL CHEMISTRY ACCOUNTS, 114 (1-3), 145-152 (2005). 
 Pseudopotentials for H to Kr optimized for gradient-corrected
 exchange-correlation functionals.
 http://dx.doi.org/10.1007/s00214-005-0655-y


 Frigo, M; Johnson, SG. 
 PROCEEDINGS OF THE IEEE, 93 (2), 216-231 (2005). 
 The design and implementation of FFTW3.
 http://dx.doi.org/10.1109/JPROC.2004.840301


 Lippert, G; Hutter, J; Parrinello, M. 
 THEORETICAL CHEMISTRY ACCOUNTS, 103 (2), 124-140 (1999). 
 The Gaussian and augmented-plane-wave density functional method for ab
 initio molecular dynamics simulations.
 http://dx.doi.org/10.1007/s002140050523


 Krack, M; Parrinello, M. 
 PHYSICAL CHEMISTRY CHEMICAL PHYSICS, 2 (10), 2105-2112 (2000). 
 All-electron ab-initio molecular dynamics.
 http://dx.doi.org/10.1039/b001167n


 Hartwigsen, C; Goedecker, S; Hutter, J. 
 PHYSICAL REVIEW B, 58 (7), 3641-3662 (1998). 
 Relativistic separable dual-space Gaussian pseudopotentials from H to Rn.
 http://dx.doi.org/10.1103/PhysRevB.58.3641


 Goedecker, S; Teter, M; Hutter, J. 
 PHYSICAL REVIEW B, 54 (3), 1703-1710 (1996). 
 Separable dual-space Gaussian pseudopotentials.
 http://dx.doi.org/10.1103/PhysRevB.54.1703


 -------------------------------------------------------------------------------
 -                                                                             -
 -                                T I M I N G                                  -
 -                                                                             -
 -------------------------------------------------------------------------------
 SUBROUTINE                       CALLS  ASD         SELF TIME        TOTAL TIME
                                MAXIMUM       AVERAGE  MAXIMUM  AVERAGE  MAXIMUM
 CP2K                                 1  1.0    0.095    0.119 1185.634 1185.634
 qs_ks_update_qs_env                 74  4.8    0.002    0.002 1138.939 1138.958
 rebuild_ks_matrix                   74  5.8    0.000    0.000 1138.934 1138.952
 qs_ks_build_kohn_sham_matrix        74  6.8    0.021    0.024 1138.934 1138.952
 qs_energies                          2  2.0    0.002    0.002 1073.497 1073.501
 scf_env_do_scf                       2  3.0    0.000    0.000 1071.929 1071.932
 scf_env_do_scf_inner_loop           70  4.0    0.003    0.006 1071.926 1071.929
 prepare_gapw_den                    82  7.6    0.005    0.007  964.989  965.397
 calculate_rho_atom                 156  8.7   72.919  953.097   72.923  953.153
 mp_sum_dv                          169  8.5  880.246  939.096  880.246  939.096
 pw_transfer                       1718  9.1    0.077    0.086   74.746   77.080
 fft_wrap_pw1pw2                   1636 10.1    0.012    0.014   74.511   76.823
 fft_wrap_pw1pw2_140                760 10.8    4.272    5.121   69.518   73.088
 fft3d_ps                          1636 12.1   38.702   42.128   59.711   60.789
 mp_sum_d                          1917  6.6   52.334   58.844   52.334   58.844
 Vh_1c_gg_integrals                  82  7.6    3.507   53.721   54.053   54.905
 hfx_ks_matrix                       74  7.8    0.001    0.001   47.313   47.316
 integrate_four_center               74  8.8    0.073    0.091   47.311   47.312
 qs_rho_update_rho                   76  4.8    0.001    0.001   43.300   43.301
 calculate_rho_elec                 152  5.8    0.530    0.719   43.224   43.225
 density_rs2pw                      152  6.8    0.007    0.009   40.479   41.099
 pw_poisson_solve                    82  7.6    1.149    1.287   36.098   36.107
 calc_screening_functions             2 10.0   24.637   25.176   24.936   25.474
 rs_pw_transfer                    1330  9.3    0.016    0.019   24.490   25.358
 sum_up_and_integrate                70  8.0    0.001    0.001   23.656   23.747
 integrate_v_rspace                 140  9.0    0.109    0.311   23.655   23.747
 -------------------------------------------------------------------------------

 The number of warnings for this run is : 0
 
 -------------------------------------------------------------------------------
  **** **** ******  **  PROGRAM ENDED AT                 2019-07-25 13:10:20.870
 ***** ** ***  *** **   PROGRAM RAN ON            cpn-p28-39.cbls.ccr.buffalo.ed
 **    ****   ******    PROGRAM RAN BY                                  pavankum
 ***** **    ** ** **   PROGRAM PROCESS ID                                 98030
  **** **  *******  **  PROGRAM STOPPED IN /projects/academic/mdupuis2/pavan/VAB
                                           _calculation/results_for_paper/2.Zn2+
                                           /gapw_pseudo/r_7
