 DBCSR| Multiplication driver                                               BLAS
 DBCSR| Multrec recursion limit                                              512
 DBCSR| Multiplication stack size                                           1000
 DBCSR| Maximum elements for images                                    UNLIMITED
 DBCSR| Multiplicative factor virtual images                                   1
 DBCSR| Multiplication size stacks                                             3
 DBCSR| Number of 3D layers                                               SINGLE
 DBCSR| Use MPI memory allocation                                              T
 DBCSR| Use RMA algorithm                                                      F
 DBCSR| Use Communication thread                                               T
 DBCSR| Communication thread load                                             87


  **** **** ******  **  PROGRAM STARTED AT               2019-07-25 12:50:06.355
 ***** ** ***  *** **   PROGRAM STARTED ON        cpn-p28-38.cbls.ccr.buffalo.ed
 **    ****   ******    PROGRAM STARTED BY                              pavankum
 ***** **    ** ** **   PROGRAM PROCESS ID                                 96690
  **** **  *******  **  PROGRAM STARTED IN /projects/academic/mdupuis2/pavan/VAB
                                           _calculation/results_for_paper/2.Zn2+
                                           /gapw_pseudo/r_6

 CP2K| version string:                                          CP2K version 6.1
 CP2K| source code revision number:                                    svn:18464
 CP2K| cp2kflags: libint fftw3 libxc parallel mpi3 scalapack libderiv_max_am1=5 
 CP2K|            libint_max_am=6
 CP2K| is freely available from                            https://www.cp2k.org/
 CP2K| Program compiled at                          Fri Nov 30 14:17:09 EST 2018
 CP2K| Program compiled on                       srv-p22-12.cbls.ccr.buffalo.edu
 CP2K| Program compiled for                                                local
 CP2K| Data directory path    /projects/academic/mdupuis2/pavan/cp2k/cp2k-6.1/da
 CP2K| Input file name                                                 input.inp

 GLOBAL| Force Environment number                                              3
 GLOBAL| Basis set file name                                           BASIS_SET
 GLOBAL| Potential file name                                           POTENTIAL
 GLOBAL| MM Potential file name                                     MM_POTENTIAL
 GLOBAL| Coordinate file name                                     ./geometry.xyz
 GLOBAL| Force Environment number                                              1
 GLOBAL| Basis set file name            /projects/academic/mdupuis2/pavan/BASIS_
 GLOBAL| Potential file name            /projects/academic/mdupuis2/pavan/POTENT
 GLOBAL| MM Potential file name                                     MM_POTENTIAL
 GLOBAL| Coordinate file name                                       ./state0.xyz
 GLOBAL| Force Environment number                                              2
 GLOBAL| Basis set file name            /projects/academic/mdupuis2/pavan/BASIS_
 GLOBAL| Potential file name            /projects/academic/mdupuis2/pavan/POTENT
 GLOBAL| MM Potential file name                                     MM_POTENTIAL
 GLOBAL| Coordinate file name                                       ./state1.xyz
 GLOBAL| Method name                                                        CP2K
 GLOBAL| Project name                                                      p_zn_
 GLOBAL| Preferred FFT library                                             FFTW3
 GLOBAL| Preferred diagonalization lib.                                       SL
 GLOBAL| Run type                                                         ENERGY
 GLOBAL| All-to-all communication in single precision                          F
 GLOBAL| FFTs using library dependent lengths                                  T
 GLOBAL| Global print level                                               MEDIUM
 GLOBAL| Total number of message passing processes                            16
 GLOBAL| Number of threads for this process                                    1
 GLOBAL| This output is from process                                           0
 GLOBAL| CPU model name :  Intel(R) Xeon(R) CPU E5-2650 v3 @ 2.30GHz

 MEMORY| system memory details [Kb]
 MEMORY|                        rank 0           min           max       average
 MEMORY| MemTotal            131740880     131740880     131740880     131740880
 MEMORY| MemFree             127094768     127094768     127094768     127094768
 MEMORY| Buffers                346840        346840        346840        346840
 MEMORY| Cached                 805184        805184        805184        805184
 MEMORY| Slab                   358756        358756        358756        358756
 MEMORY| SReclaimable           171884        171884        171884        171884
 MEMORY| MemLikelyFree       128418676     128418676     128418676     128418676


 *** Fundamental physical constants (SI units) ***

 *** Literature: B. J. Mohr and B. N. Taylor,
 ***             CODATA recommended values of the fundamental physical
 ***             constants: 2006, Web Version 5.1
 ***             http://physics.nist.gov/constants

 Speed of light in vacuum [m/s]                             2.99792458000000E+08
 Magnetic constant or permeability of vacuum [N/A**2]       1.25663706143592E-06
 Electric constant or permittivity of vacuum [F/m]          8.85418781762039E-12
 Planck constant (h) [J*s]                                  6.62606896000000E-34
 Planck constant (h-bar) [J*s]                              1.05457162825177E-34
 Elementary charge [C]                                      1.60217648700000E-19
 Electron mass [kg]                                         9.10938215000000E-31
 Electron g factor [ ]                                     -2.00231930436220E+00
 Proton mass [kg]                                           1.67262163700000E-27
 Fine-structure constant                                    7.29735253760000E-03
 Rydberg constant [1/m]                                     1.09737315685270E+07
 Avogadro constant [1/mol]                                  6.02214179000000E+23
 Boltzmann constant [J/K]                                   1.38065040000000E-23
 Atomic mass unit [kg]                                      1.66053878200000E-27
 Bohr radius [m]                                            5.29177208590000E-11

 *** Conversion factors ***

 [u] -> [a.u.]                                              1.82288848426455E+03
 [Angstrom] -> [Bohr] = [a.u.]                              1.88972613288564E+00
 [a.u.] = [Bohr] -> [Angstrom]                              5.29177208590000E-01
 [a.u.] -> [s]                                              2.41888432650478E-17
 [a.u.] -> [fs]                                             2.41888432650478E-02
 [a.u.] -> [J]                                              4.35974393937059E-18
 [a.u.] -> [N]                                              8.23872205491840E-08
 [a.u.] -> [K]                                              3.15774647902944E+05
 [a.u.] -> [kJ/mol]                                         2.62549961709828E+03
 [a.u.] -> [kcal/mol]                                       6.27509468713739E+02
 [a.u.] -> [Pa]                                             2.94210107994716E+13
 [a.u.] -> [bar]                                            2.94210107994716E+08
 [a.u.] -> [atm]                                            2.90362800883016E+08
 [a.u.] -> [eV]                                             2.72113838565563E+01
 [a.u.] -> [Hz]                                             6.57968392072181E+15
 [a.u.] -> [1/cm] (wave numbers)                            2.19474631370540E+05
 [a.u./Bohr**2] -> [1/cm]                                   5.14048714338585E+03
 
 MIXED_ENV| Number of created MPI groups:                                      1
 MIXED_ENV| Task to group correspondence:
  (   0 :    0)  (   1 :    0)  (   2 :    0)  (   3 :    0)
  (   4 :    0)  (   5 :    0)  (   6 :    0)  (   7 :    0)
  (   8 :    0)  (   9 :    0)  (  10 :    0)  (  11 :    0)
  (  12 :    0)  (  13 :    0)  (  14 :    0)  (  15 :    0)
          ----------------------------------------------------------------------
 COLVARS| COLVAR INPUT INDEX:        1
 COLVARS| ENERGY          >>> ATOMS:                                        all!
          ----------------------------------------------------------------------

 CELL_TOP| Volume [angstrom^3]:                                         8000.000
 CELL_TOP| Vector a [angstrom    20.000     0.000     0.000    |a| =      20.000
 CELL_TOP| Vector b [angstrom     0.000    20.000     0.000    |b| =      20.000
 CELL_TOP| Vector c [angstrom     0.000     0.000    20.000    |c| =      20.000
 CELL_TOP| Angle (b,c), alpha [degree]:                                   90.000
 CELL_TOP| Angle (a,c), beta  [degree]:                                   90.000
 CELL_TOP| Angle (a,b), gamma [degree]:                                   90.000
 CELL_TOP| Numerically orthorhombic:                                         YES

 GENERATE|  Preliminary Number of Bonds generated:                             0
 GENERATE|  Achieved consistency in connectivity generation.

 CELL| Volume [angstrom^3]:                                             8000.000
 CELL| Vector a [angstrom]:      20.000     0.000     0.000    |a| =      20.000
 CELL| Vector b [angstrom]:       0.000    20.000     0.000    |b| =      20.000
 CELL| Vector c [angstrom]:       0.000     0.000    20.000    |c| =      20.000
 CELL| Angle (b,c), alpha [degree]:                                       90.000
 CELL| Angle (a,c), beta  [degree]:                                       90.000
 CELL| Angle (a,b), gamma [degree]:                                       90.000
 CELL| Numerically orthorhombic:                                             YES

 CELL_REF| Volume [angstrom^3]:                                         8000.000
 CELL_REF| Vector a [angstrom    20.000     0.000     0.000    |a| =      20.000
 CELL_REF| Vector b [angstrom     0.000    20.000     0.000    |b| =      20.000
 CELL_REF| Vector c [angstrom     0.000     0.000    20.000    |c| =      20.000
 CELL_REF| Angle (b,c), alpha [degree]:                                   90.000
 CELL_REF| Angle (a,c), beta  [degree]:                                   90.000
 CELL_REF| Angle (a,b), gamma [degree]:                                   90.000
 CELL_REF| Numerically orthorhombic:                                         YES


 MOLECULE KIND INFORMATION


 All atoms are their own molecule, skipping detailed information
 nspins, nimgs, gapw_xc           2           1 F 

 ####### CHECKS ON A and B #######
  E_A before:  -116.03246684681910     
  E_B before:  -116.03246684681886     
 ####### - #######
##Inside build_kohn_sham_matrix() before doing any function calls
 i). ELECTRON ONLY CALLS
 1. Electron_pw   130.38165388115016     
 2. Electron_1c  -6.2470035336209300     
 ########## After 1st poisson call pure hartree  (sum of above two quantities) ##########   124.13465034752923     
 ########################
ii). NUCLEAR ONLY CALLS
 1. Nuclear_pw   305.62713508107134     
 2. Nuclear_1c  -133.62629575339506     
iii). REGULAR CALL (ELECTRON+NUCLEAR)
 1. Hartree_pw   66.844040225205433     
 2. Hartree_1c  -60.800438804566326     
 Regular: Before call to qs_vxc Regular_exc, exc1   0.0000000000000000        0.0000000000000000     
 Regular: After call to qs_vxc_create Regular_exc, exc1   0.0000000000000000        0.0000000000000000     
 iv). EXCHANGE ENERGY   -12.835701010799909     
 v). POTENTIAL ENERGY FROM CORE HAMILTONIAN   -117.64559672923072     
 vi). KINETIC ENERGY    167.70581776840919     
 vii). SELF ENERGY   -159.30058829583706     
      
 E_NUC is    12.700251031839230     
      
IN build_kohn_sham_matrix() CALLING qs_ks_atom(),updates single atom contributions due to gapw
Inside build_kohn_sham_matrix() after doing all function calls and evaluating energy
 CHECK ON A IS DONE, E_A after passing modified PA_hat density:  -116.03246684681939     
##Inside build_kohn_sham_matrix() before doing any function calls
 i). ELECTRON ONLY CALLS
 1. Electron_pw   130.38165389629606     
 2. Electron_1c  -6.2470035330227027     
 ########## After 1st poisson call pure hartree  (sum of above two quantities) ##########   124.13465036327335     
 ########################
ii). NUCLEAR ONLY CALLS
 1. Nuclear_pw   305.62713508107134     
 2. Nuclear_1c  -133.62629575339506     
iii). REGULAR CALL (ELECTRON+NUCLEAR)
 1. Hartree_pw   66.844040236608123     
 2. Hartree_1c  -60.800438807739503     
 Regular: Before call to qs_vxc Regular_exc, exc1   0.0000000000000000        0.0000000000000000     
 Regular: After call to qs_vxc_create Regular_exc, exc1   0.0000000000000000        0.0000000000000000     
 iv). EXCHANGE ENERGY   -12.835701019590418     
 v). POTENTIAL ENERGY FROM CORE HAMILTONIAN   -117.64559672191271     
 vi). KINETIC ENERGY    167.70581776165238     
 vii). SELF ENERGY   -159.30058829583706     
      
 E_NUC is    12.700251031839230     
      
IN build_kohn_sham_matrix() CALLING qs_ks_atom(),updates single atom contributions due to gapw
Inside build_kohn_sham_matrix() after doing all function calls and evaluating energy
 CHECK ON B IS DONE, E_B after passing modified PB_hat density:  -116.03246684681919     
 DOING ANTI-SYMMETRIC PART OF VAB
##Inside build_kohn_sham_matrix() before doing any function calls
 i). ELECTRON ONLY CALLS
 1. Electron_pw   4.6030016882647808E-006
 2. Electron_1c   1.6890111658388565E-015
 ########## After 1st poisson call pure hartree  (sum of above two quantities) ##########   4.6030016899537916E-006
 ########################
ii). NUCLEAR ONLY CALLS
 1. Nuclear_pw   305.62713508107134     
 2. Nuclear_1c  -133.62629575339506     
iii). REGULAR CALL (ELECTRON+NUCLEAR)
 1. Hartree_pw   305.60404080205319     
 2. Hartree_1c  -133.62628776564020     
 Regular: Before call to qs_vxc Regular_exc, exc1   0.0000000000000000        0.0000000000000000     
 Regular: After call to qs_vxc_create Regular_exc, exc1   0.0000000000000000        0.0000000000000000     
 iv). EXCHANGE ENERGY   -2.1796011197063370E-002
 v). POTENTIAL ENERGY FROM CORE HAMILTONIAN    2.8836114182328489E-005
 vi). KINETIC ENERGY   -1.5096176077013736E-003
 vii). SELF ENERGY   -159.30058829583706     
      
 E_NUC is    12.700251031839230     
      
IN build_kohn_sham_matrix() CALLING qs_ks_atom(),updates single atom contributions due to gapw
Inside build_kohn_sham_matrix() after doing all function calls and evaluating energy
 DOING SYMMETRIC PART OF VAB
##Inside build_kohn_sham_matrix() before doing any function calls
 i). ELECTRON ONLY CALLS
 1. Electron_pw   3.1030899257477005     
 2. Electron_1c -0.14885226198348411     
 ########## After 1st poisson call pure hartree  (sum of above two quantities) ##########   2.9542376637642165     
 ########################
 ehartree, ehartree_1c after multiplying with DTPROD/DHPROD  -20.105830095723789       0.96445747961460437     
 dtprod, dhprod are -0.99999999999999944       0.15433781699009183     
 J2_AB is   -19.141372616109184     
ii). NUCLEAR ONLY CALLS
 1. Nuclear_pw   305.62713508107134     
 2. Nuclear_1c  -133.62629575339506     
iii). REGULAR CALL (ELECTRON+NUCLEAR)
 1. Hartree_pw   251.76286473507344     
 2. Hartree_1c  -121.56926154787293     
 Regular: Before call to qs_vxc Regular_exc, exc1   0.0000000000000000        0.0000000000000000     
 Regular: After call to qs_vxc_create Regular_exc, exc1   0.0000000000000000        0.0000000000000000     
 iv). EXCHANGE ENERGY  -0.32606427746964795     
 v). POTENTIAL ENERGY FROM CORE HAMILTONIAN   -18.160929304128572     
 vi). KINETIC ENERGY    25.882902679461676     
 vii). SELF ENERGY   -159.30058829583706     
      
 E_NUC is    12.700251031839230     
      
IN build_kohn_sham_matrix() CALLING qs_ks_atom(),updates single atom contributions due to gapw
 ########################
 #########  ET  #########
 ------------------------
 E_NUC   12.700251031839230     
 HAA <a|H|a>  -128.73271787865860     
 HBB <b|H|b>  -128.73271787865849     
             
 <a|H1|b>   37.039500428906912     
 <a|H2|b>  -17.169929244637125     
 ...<a|J2|b>  -19.141372616109184     
 ...<a|K2|b>   1.9714433714720598     
 HAB <a|H|b>   19.869571184269788     
 SAB -0.15433781699009175     
 VAB   1.2749000053814386E-003
  VAB in different units 
 ------------------------
          3.4691793425160010E-002 eV
          279.80820871539072      1/cm
         0.80001182504004953      kcal/mol
          3.3472494759675673      kJ/mol
          8388439065936.3994      Hertz
 ------------------------
 ------------------------
 E+  -128.73124621178818     
 E-  -128.73379601496302     
 (E+ - E-)/2   1.2749015874415081E-003
          3.4691836475203852E-002 eV
          279.80855593744127      1/cm
         0.80001281779772326      kcal/mol
          3.3472536296656741      kJ/mol
          8388449475391.6006      Hertz
 ------------------------
 ------------------------
Inside build_kohn_sham_matrix() after doing all function calls and evaluating energy
 NO FORCE_EVAL section calculated the dipole

 ENERGY| Total FORCE_EVAL ( MIXED ) energy (a.u.):            -0.000000000000242


 -------------------------------------------------------------------------------
 -                                                                             -
 -                                DBCSR STATISTICS                             -
 -                                                                             -
 -------------------------------------------------------------------------------
 COUNTER                                    TOTAL       BLAS       SMM       ACC
 flops    25 x    12 x    25               120000     100.0%      0.0%      0.0%
 flops    25 x    11 x    25               220000     100.0%      0.0%      0.0%
 flops    25 x    25 x    11              3135000     100.0%      0.0%      0.0%
 flops    25 x    25 x    12              3420000     100.0%      0.0%      0.0%
 flops inhomo. stacks                           0       0.0%      0.0%      0.0%
 flops total                         6.895000E+06     100.0%      0.0%      0.0%
 flops max/rank                      2.355000E+06     100.0%      0.0%      0.0%
 matmuls inhomo. stacks                         0       0.0%      0.0%      0.0%
 matmuls total                                480     100.0%      0.0%      0.0%
 number of processed stacks                   480     100.0%      0.0%      0.0%
 average stack size                                     1.0       0.0       0.0
 marketing flops                     9.080000E+06
 -------------------------------------------------------------------------------
 # multiplications                            158
 max memory usage/rank             724.250624E+06
 # max total images/rank                        1
 # max 3D layers                                1
 # MPI messages exchanged                   15168
 MPI messages size (bytes):
  total size                         4.636800E+06
  min size                           0.000000E+00
  max size                           5.000000E+03
  average size                     305.696198E+00
 MPI breakdown and total messages size (bytes):
             size <=      128               13236                        0
       128 < size <=     8192                1932                  4636800
      8192 < size <=    32768                   0                        0
     32768 < size <=   131072                   0                        0
    131072 < size <=  4194304                   0                        0
   4194304 < size <= 16777216                   0                        0
  16777216 < size                               0                        0
 -------------------------------------------------------------------------------

 MEMORY| Estimated peak process memory [MiB]                                 692

 -------------------------------------------------------------------------------
 -                                                                             -
 -                         MESSAGE PASSING PERFORMANCE                         -
 -                                                                             -
 -------------------------------------------------------------------------------

 ROUTINE             CALLS      AVE VOLUME [Bytes]
 MP_Group              311
 MP_Bcast             1076                 689481.
 MP_Allreduce         4334                  13920.
 MP_Sync               865
 MP_Alltoall          7498                5033980.
 MP_ISendRecv        13980                  79141.
 MP_Wait             39642
 MP_comm_split         149
 MP_ISend            18248                 531759.
 MP_IRecv            18248                 531625.
 MP_Recv                24                   1200.
 MP_Memory            6256
 -------------------------------------------------------------------------------


 -------------------------------------------------------------------------------
 -                                                                             -
 -                           R E F E R E N C E S                               -
 -                                                                             -
 -------------------------------------------------------------------------------
 
 CP2K version 6.1, the CP2K developers group (2018).
 CP2K is freely available from https://www.cp2k.org/ .

 Schuett, Ole; Messmer, Peter; Hutter, Juerg; VandeVondele, Joost. 
 Electronic Structure Calculations on Graphics Processing Units, John Wiley & Sons, Ltd, 173-190 (2016). 
 GPU-Accelerated Sparse Matrix-Matrix Multiplication for Linear Scaling Density Functional Theory.
 http://dx.doi.org/10.1002/9781118670712.ch8


 Borstnik, U; VandeVondele, J; Weber, V; Hutter, J. 
 PARALLEL COMPUTING, 40 (5-6), 47-58 (2014). 
 Sparse matrix multiplication: The distributed block-compressed sparse
 row library.
 http://dx.doi.org/10.1016/j.parco.2014.03.012


 Hutter, J; Iannuzzi, M; Schiffmann, F; VandeVondele, J. 
 WILEY INTERDISCIPLINARY REVIEWS-COMPUTATIONAL MOLECULAR SCIENCE, 4 (1), 15-25 (2014). 
 CP2K: atomistic simulations of condensed matter systems.
 http://dx.doi.org/10.1002/wcms.1159


 Guidon, M; Hutter, J; VandeVondele, J. 
 JOURNAL OF CHEMICAL THEORY AND COMPUTATION, 5 (11), 3010-3021 (2009). 
 Robust Periodic Hartree-Fock Exchange for Large-Scale Simulations Using
 Gaussian Basis Sets.
 http://dx.doi.org/10.1021/ct900494g


 Guidon, M; Schiffmann, F; Hutter, J; VandeVondele, J. 
 JOURNAL OF CHEMICAL PHYSICS, 128 (21), 214104 (2008). 
 Ab initio molecular dynamics using hybrid density functionals.
 http://dx.doi.org/10.1063/1.2931945


 VandeVondele, J; Hutter, J. 
 JOURNAL OF CHEMICAL PHYSICS, 127 (11), 114105 (2007). 
 Gaussian basis sets for accurate calculations on molecular systems in
 gas and condensed phases.
 http://dx.doi.org/10.1063/1.2770708


 Genovese, L; Deutsch, T; Goedecker, S. 
 JOURNAL OF CHEMICAL PHYSICS, 127 (5), 054704 (2007). 
 Efficient and accurate three-dimensional Poisson solver for surface
 problems.
 http://dx.doi.org/10.1063/1.2754685


 Genovese, L; Deutsch, T; Neelov, A; Goedecker, S; Beylkin, G. 
 JOURNAL OF CHEMICAL PHYSICS, 125 (7), 074105 (2006). 
 Efficient solution of Poisson's equation with free boundary conditions.
 http://dx.doi.org/10.1063/1.2335442


 Krack, M. 
 THEORETICAL CHEMISTRY ACCOUNTS, 114 (1-3), 145-152 (2005). 
 Pseudopotentials for H to Kr optimized for gradient-corrected
 exchange-correlation functionals.
 http://dx.doi.org/10.1007/s00214-005-0655-y


 Frigo, M; Johnson, SG. 
 PROCEEDINGS OF THE IEEE, 93 (2), 216-231 (2005). 
 The design and implementation of FFTW3.
 http://dx.doi.org/10.1109/JPROC.2004.840301


 Lippert, G; Hutter, J; Parrinello, M. 
 THEORETICAL CHEMISTRY ACCOUNTS, 103 (2), 124-140 (1999). 
 The Gaussian and augmented-plane-wave density functional method for ab
 initio molecular dynamics simulations.
 http://dx.doi.org/10.1007/s002140050523


 Krack, M; Parrinello, M. 
 PHYSICAL CHEMISTRY CHEMICAL PHYSICS, 2 (10), 2105-2112 (2000). 
 All-electron ab-initio molecular dynamics.
 http://dx.doi.org/10.1039/b001167n


 Hartwigsen, C; Goedecker, S; Hutter, J. 
 PHYSICAL REVIEW B, 58 (7), 3641-3662 (1998). 
 Relativistic separable dual-space Gaussian pseudopotentials from H to Rn.
 http://dx.doi.org/10.1103/PhysRevB.58.3641


 Goedecker, S; Teter, M; Hutter, J. 
 PHYSICAL REVIEW B, 54 (3), 1703-1710 (1996). 
 Separable dual-space Gaussian pseudopotentials.
 http://dx.doi.org/10.1103/PhysRevB.54.1703


 -------------------------------------------------------------------------------
 -                                                                             -
 -                                T I M I N G                                  -
 -                                                                             -
 -------------------------------------------------------------------------------
 SUBROUTINE                       CALLS  ASD         SELF TIME        TOTAL TIME
                                MAXIMUM       AVERAGE  MAXIMUM  AVERAGE  MAXIMUM
 CP2K                                 1  1.0    0.102    0.116 1354.337 1354.337
 qs_ks_update_qs_env                 78  4.8    0.003    0.003 1276.843 1276.871
 rebuild_ks_matrix                   78  5.8    0.000    0.000 1276.834 1276.863
 qs_ks_build_kohn_sham_matrix        78  6.8    0.028    0.032 1276.833 1276.863
 qs_energies                          2  2.0    0.002    0.002 1234.460 1234.463
 scf_env_do_scf                       2  3.0    0.000    0.001 1232.003 1232.006
 scf_env_do_scf_inner_loop           74  4.0    0.004    0.009 1232.001 1232.004
 prepare_gapw_den                    86  7.6    0.008    0.013 1027.081 1027.787
 calculate_rho_atom                 164  8.7   86.986 1007.030   86.989 1007.087
 mp_sum_dv                          177  8.5  920.086  991.979  920.086  991.979
 pw_transfer                       1810  9.1    0.132    0.160  123.311  126.569
 fft_wrap_pw1pw2                   1724 10.1    0.022    0.026  122.844  126.037
 fft_wrap_pw1pw2_140                800 10.8    8.202    9.510  114.123  119.681
 fft3d_ps                          1724 12.1   60.319   66.970   95.447   97.256
 hfx_ks_matrix                       78  7.8    0.001    0.002   72.232   72.236
 integrate_four_center               78  8.8    0.159    0.176   72.229   72.231
 qs_rho_update_rho                   80  4.8    0.001    0.002   72.030   72.032
 calculate_rho_elec                 160  5.8    0.693    1.255   71.909   71.910
 density_rs2pw                      160  6.8    0.012    0.015   67.226   68.866
 mp_sum_d                          1997  6.7   55.070   65.972   55.070   65.972
 pw_poisson_solve                    86  7.6    1.809    2.454   60.607   60.670
 Vh_1c_gg_integrals                  86  7.6    3.804   57.059   55.887   57.169
 rs_pw_transfer                    1402  9.3    0.033    0.043   41.847   42.776
 calc_screening_functions             2 10.0   36.106   40.398   36.570   40.918
 sum_up_and_integrate                74  8.0    0.001    0.002   40.209   40.755
 integrate_v_rspace                 148  9.0    0.321    1.493   40.208   40.753
 potential_pw2rs                    148 10.0    0.039    0.048   39.812   40.017
 mp_alltoall_z22v                  1724 14.1   14.852   37.137   14.852   37.137
 yz_to_x                            960 12.6    9.547   12.023   18.773   29.759
 ps_wavelet_solve                    86  8.6   22.402   26.146   27.537   27.900
 -------------------------------------------------------------------------------

 The number of warnings for this run is : 0
 
 -------------------------------------------------------------------------------
  **** **** ******  **  PROGRAM ENDED AT                 2019-07-25 13:12:41.104
 ***** ** ***  *** **   PROGRAM RAN ON            cpn-p28-38.cbls.ccr.buffalo.ed
 **    ****   ******    PROGRAM RAN BY                                  pavankum
 ***** **    ** ** **   PROGRAM PROCESS ID                                 96690
  **** **  *******  **  PROGRAM STOPPED IN /projects/academic/mdupuis2/pavan/VAB
                                           _calculation/results_for_paper/2.Zn2+
                                           /gapw_pseudo/r_6
