     270
 i =        8, E =     -8124.3381708217
Ti	-0.0000000810	-0.0000000733	0.0000000238
Ti	2.3224969657	2.3224969408	1.4827352534
Ti	4.6449940706	-0.0000001297	-0.0000000385
Ti	6.9674912822	2.3224969609	1.4827351867
Ti	9.2899883649	-0.0000001343	-0.0000000516
Ti	11.6124855609	2.3224970053	1.4827352248
Ti	-0.0000001209	4.6449940557	0.0000000549
Ti	2.3224969361	6.9674912281	1.4827352959
Ti	4.6449940863	4.6449940128	-0.0000000078
Ti	6.9674912864	6.9674912586	1.4827352281
Ti	9.2899884358	4.6449940306	-0.0000000115
Ti	11.6124855617	6.9674912064	1.4827352663
Ti	-0.0000001251	9.2899883568	0.0000000752
Ti	2.3224969329	11.6124854330	1.4827352599
Ti	4.6449940774	9.2899884132	0.0000000089
Ti	6.9674911895	11.6124854845	1.4827352090
Ti	9.2899883699	9.2899883221	0.0000000105
Ti	11.6124855088	11.6124854372	1.4827352322
Ti	-0.0000000573	-0.0000000999	2.9654704607
Ti	2.3224969753	2.3224969538	4.4482057094
Ti	4.6449940120	-0.0000001083	2.9654704521
Ti	6.9674912815	2.3224969556	4.4482057009
Ti	9.2899884194	-0.0000001518	2.9654704186
Ti	11.6124856039	2.3224970582	4.4482056794
Ti	-0.0000001406	4.6449940926	2.9654704932
Ti	2.3224969306	6.9674912246	4.4482056735
Ti	4.6449939889	4.6449940908	2.9654704800
Ti	6.9674912437	6.9674912407	4.4482056841
Ti	9.2899884500	4.6449940722	2.9654704480
Ti	11.6124855793	6.9674912599	4.4482056605
Ti	-0.0000000967	9.2899883113	2.9654704824
Ti	2.3224969152	11.6124854201	4.4482056748
Ti	4.6449940332	9.2899884058	2.9654704723
Ti	6.9674911514	11.6124854430	4.4482057025
Ti	9.2899884186	9.2899882889	2.9654704352
Ti	11.6124855188	11.6124854432	4.4482056528
Ti	-0.0000000506	-0.0000000944	5.9309408996
Ti	2.3224970181	2.3224969767	7.4136761508
Ti	4.6449940142	-0.0000000969	5.9309409565
Ti	6.9674912465	2.3224969295	7.4136762155
Ti	9.2899883779	-0.0000001288	5.9309409488
Ti	11.6124855515	2.3224970005	7.4136761563
Ti	-0.0000000882	4.6449940667	5.9309408837
Ti	2.3224969690	6.9674912485	7.4136761006
Ti	4.6449940029	4.6449940746	5.9309409378
Ti	6.9674912030	6.9674912057	7.4136761638
Ti	9.2899884277	4.6449940714	5.9309409198
Ti	11.6124855324	6.9674912015	7.4136761059
Ti	-0.0000000592	9.2899883098	5.9309408521
Ti	2.3224970016	11.6124855099	7.4136761309
Ti	4.6449940248	9.2899884055	5.9309409177
Ti	6.9674911677	11.6124854719	7.4136762063
Ti	9.2899883907	9.2899882866	5.9309409069
Ti	11.6124855219	11.6124854486	7.4136761364
Ti	-0.0000000524	-0.0000000733	8.8964113649
Ti	2.3224970390	2.3224969746	10.3791465640
Ti	4.6449940647	-0.0000001080	8.8964114048
Ti	6.9674912326	2.3224969133	10.3791465993
Ti	9.2899883065	-0.0000000865	8.8964114308
Ti	11.6124854528	2.3224969079	10.3791465896
Ti	-0.0000000765	4.6449940155	8.8964113300
Ti	2.3224969962	6.9674912871	10.3791465565
Ti	4.6449940977	4.6449939876	8.8964113714
Ti	6.9674912430	6.9674912145	10.3791465835
Ti	9.2899883904	4.6449940389	8.8964113855
Ti	11.6124854653	6.9674911346	10.3791465751
Ti	-0.0000000751	9.2899883399	8.8964113146
Ti	2.3224970770	11.6124855629	10.3791465678
Ti	4.6449940737	9.2899884131	8.8964113677
Ti	6.9674912178	11.6124855280	10.3791466093
Ti	9.2899883125	9.2899883579	8.8964113918
Ti	11.6124854884	11.6124854439	10.3791465979
Ti	-0.0000000701	-0.0000000664	11.8618818046
Ti	2.3224970114	2.3224969510	13.3446170230
Ti	4.6449941128	-0.0000001291	11.8618817782
Ti	6.9674912728	2.3224969388	13.3446169808
Ti	9.2899883022	-0.0000000824	11.8618817999
Ti	11.6124854744	2.3224969153	13.3446170444
Ti	-0.0000001017	4.6449940004	11.8618818134
Ti	2.3224969824	6.9674912665	13.3446170630
Ti	4.6449941264	4.6449939631	11.8618817734
Ti	6.9674912756	6.9674912260	13.3446170055
Ti	9.2899883945	4.6449940290	11.8618818038
Ti	11.6124854797	6.9674911498	13.3446170821
Ti	-0.0000001397	9.2899883816	11.8618818261
Ti	2.3224970338	11.6124855392	13.3446170373
Ti	4.6449941245	9.2899884079	11.8618818015
Ti	6.9674912423	11.6124855409	13.3446170038
Ti	9.2899883046	9.2899883807	11.8618818272
Ti	11.6124854801	11.6124854398	13.3446170536
O	1.4106915608	1.4106916250	-0.0000000276
O	3.2343025369	3.2343026220	0.0000000213
O	0.9059204960	3.7390738697	1.4827352830
O	3.7390738971	0.9059204946	1.4827351620
O	6.0556856886	1.4106916368	-0.0000000235
O	7.8792967377	3.2343027998	-0.0000000715
O	5.5509147640	3.7390738688	1.4827353207
O	8.3840680243	0.9059203563	1.4827352206
O	10.7006799126	1.4106916799	0.0000000880
O	12.5242909654	3.2343026774	-0.0000000889
O	10.1959088750	3.7390737197	1.4827352131
O	13.0290622407	0.9059203539	1.4827352656
O	1.4106916378	6.0556856719	0.0000000034
O	3.2343028272	7.8792966953	0.0000000849
O	0.9059203720	8.3840679720	1.4827352337
O	3.7390738695	5.5509147857	1.4827351463
O	6.0556857193	6.0556857826	0.0000000022
O	7.8792969090	7.8792969113	-0.0000000271
O	5.5509146150	8.3840679396	1.4827352571
O	8.3840679877	5.5509146100	1.4827352162
O	10.7006798891	6.0556859113	0.0000001072
O	12.5242910911	7.8792968716	-0.0000000375
O	10.1959087925	8.3840678253	1.4827351649
O	13.0290622619	5.5509146366	1.4827352520
O	1.4106917465	10.7006798747	-0.0000000815
O	3.2343026962	12.5242909054	0.0000001128
O	0.9059203748	13.0290622096	1.4827352143
O	3.7390737497	10.1959088490	1.4827352164
O	6.0556859841	10.7006798525	-0.0000000899
O	7.8792969304	12.5242910086	0.0000000091
O	5.5509146439	13.0290622565	1.4827352426
O	8.3840678845	10.1959087572	1.4827352743
O	10.7006800668	10.7006799943	0.0000000244
O	12.5242910885	12.5242910393	-0.0000000012
O	10.1959088090	13.0290620991	1.4827351428
O	13.0290621530	10.1959087414	1.4827353203
O	1.4106915794	1.4106915894	2.9654704855
O	3.2343026812	3.2343024736	2.9654704542
O	0.9059204986	3.7390738569	4.4482056393
O	3.7390738847	0.9059204931	4.4482056867
O	6.0556857618	1.4106915587	2.9654704311
O	7.8792967814	3.2343027897	2.9654704482
O	5.5509147520	3.7390738881	4.4482056875
O	8.3840680335	0.9059203500	4.4482056402
O	10.7006799028	1.4106917834	2.9654704927
O	12.5242910192	3.2343027260	2.9654703977
O	10.1959088584	3.7390737121	4.4482056900
O	13.0290622413	0.9059203302	4.4482056799
O	1.4106916576	6.0556855930	2.9654704734
O	3.2343028791	7.8792966346	2.9654704860
O	0.9059203901	8.3840679561	4.4482056434
O	3.7390738558	5.5509147997	4.4482057154
O	6.0556858186	6.0556856376	2.9654704274
O	7.8792969018	7.8792969323	2.9654704897
O	5.5509146158	8.3840679561	4.4482056820
O	8.3840679927	5.5509146211	4.4482056610
O	10.7006798924	6.0556859770	2.9654704872
O	12.5242910512	7.8792969873	2.9654704262
O	10.1959087817	8.3840678115	4.4482056809
O	13.0290622624	5.5509146253	4.4482057094
O	1.4106916442	10.7006798612	2.9654704455
O	3.2343027007	12.5242908424	2.9654704907
O	0.9059203851	13.0290622186	4.4482056662
O	3.7390737521	10.1959088595	4.4482056890
O	6.0556859405	10.7006798116	2.9654703991
O	7.8792968550	12.5242910416	2.9654704845
O	5.5509146375	13.0290622854	4.4482057044
O	8.3840679133	10.1959087557	4.4482056420
O	10.7006799335	10.7006801278	2.9654704596
O	12.5242910094	12.5242911600	2.9654704269
O	10.1959087923	13.0290621005	4.4482057133
O	13.0290621660	10.1959087270	4.4482056797
O	1.4106915717	1.4106916450	5.9309409518
O	3.2343026464	3.2343025293	5.9309408913
O	0.9059205004	3.7390738372	7.4136760648
O	3.7390738823	0.9059204758	7.4136762148
O	6.0556857880	1.4106915276	5.9309409204
O	7.8792967756	3.2343027394	5.9309409814
O	5.5509147863	3.7390738781	7.4136760540
O	8.3840680194	0.9059203791	7.4136761280
O	10.7006799411	1.4106917581	5.9309408522
O	12.5242909729	3.2343027545	5.9309409662
O	10.1959088659	3.7390737335	7.4136761571
O	13.0290622630	0.9059203477	7.4136761133
O	1.4106916136	6.0556856957	5.9309409151
O	3.2343028314	7.8792966606	5.9309408482
O	0.9059203632	8.3840679608	7.4136761070
O	3.7390738694	5.5509147627	7.4136762478
O	6.0556858132	6.0556856298	5.9309408930
O	7.8792968966	7.8792968678	5.9309409538
O	5.5509146305	8.3840679666	7.4136761165
O	8.3840680039	5.5509146205	7.4136761468
O	10.7006799151	6.0556859551	5.9309408250
O	12.5242910252	7.8792969824	5.9309409318
O	10.1959087710	8.3840678538	7.4136762158
O	13.0290623020	5.5509146170	7.4136761281
O	1.4106916486	10.7006799396	5.9309409889
O	3.2343027003	12.5242908529	5.9309408184
O	0.9059203560	13.0290622000	7.4136761444
O	3.7390737462	10.1959088245	7.4136761536
O	6.0556859735	10.7006797814	5.9309409669
O	7.8792969152	12.5242909494	5.9309409167
O	5.5509146397	13.0290622757	7.4136761440
O	8.3840678892	10.1959087598	7.4136760641
O	10.7006799766	10.7006801238	5.9309408897
O	12.5242910117	12.5242911404	5.9309408938
O	10.1959087688	13.0290621208	7.4136762474
O	13.0290621792	10.1959087199	7.4136760546
O	1.4106915315	1.4106917039	8.8964113671
O	3.2343024924	3.2343027185	8.8964113508
O	0.9059205019	3.7390738315	10.3791465789
O	3.7390738867	0.9059204725	10.3791466293
O	6.0556857233	1.4106915527	8.8964113935
O	7.8792967521	3.2343027423	8.8964114185
O	5.5509148293	3.7390738474	10.3791465392
O	8.3840679891	0.9059204091	10.3791466201
O	10.7006799697	1.4106916099	8.8964112840
O	12.5242909217	3.2343027171	8.8964114582
O	10.1959088944	3.7390737497	10.3791466004
O	13.0290622753	0.9059203902	10.3791465686
O	1.4106915548	6.0556857804	8.8964113584
O	3.2343028079	7.8792967519	8.8964112973
O	0.9059203434	8.3840679675	10.3791466182
O	3.7390738867	5.5509147316	10.3791466112
O	6.0556856831	6.0556857307	8.8964113890
O	7.8792969531	7.8792968123	8.8964113637
O	5.5509146471	8.3840679564	10.3791465644
O	8.3840679875	5.5509146260	10.3791466095
O	10.7006798891	6.0556858802	8.8964112816
O	12.5242910426	7.8792968979	8.8964114062
O	10.1959087750	8.3840678854	10.3791466273
O	13.0290623241	5.5509146283	10.3791465646
O	1.4106917030	10.7006799763	8.8964114256
O	3.2343027182	12.5242909720	8.8964112798
O	0.9059203259	13.0290621772	10.3791466057
O	3.7390737229	10.1959088034	10.3791466033
O	6.0556860108	10.7006797922	8.8964114549
O	7.8792970312	12.5242909000	8.8964113454
O	5.5509146524	13.0290622345	10.3791465653
O	8.3840678386	10.1959087716	10.3791465877
O	10.7006801179	10.7006799513	8.8964113512
O	12.5242911064	12.5242910484	8.8964113876
O	10.1959087707	13.0290621257	10.3791466235
O	13.0290621682	10.1959087402	10.3791465310
O	1.4106915214	1.4106916963	11.8618817703
O	3.2343024346	3.2343027640	11.8618818296
O	0.9059204970	3.7390738539	13.3446171191
O	3.7390739126	0.9059204715	13.3446169923
O	6.0556856502	1.4106916434	11.8618818266
O	7.8792967119	3.2343027856	11.8618817717
O	5.5509147993	3.7390738548	13.3446170850
O	8.3840680064	0.9059203850	13.3446170768
O	10.7006799562	1.4106915808	11.8618818300
O	12.5242908996	3.2343026640	11.8618818151
O	10.1959088940	3.7390737473	13.3446170262
O	13.0290622773	0.9059203769	13.3446170585
O	1.4106915506	6.0556857843	11.8618817971
O	3.2343027759	7.8792968007	11.8618818308
O	0.9059203360	8.3840679829	13.3446170838
O	3.7390738928	5.5509147334	13.3446169651
O	6.0556856441	6.0556858021	11.8618818366
O	7.8792969674	7.8792968383	11.8618817683
O	5.5509146341	8.3840679464	13.3446170644
O	8.3840679876	5.5509146093	13.3446170521
O	10.7006798997	6.0556858360	11.8618818475
O	12.5242910967	7.8792968052	11.8618818214
O	10.1959087826	8.3840678780	13.3446169960
O	13.0290623146	5.5509146309	13.3446170309
O	1.4106917875	10.7006799191	11.8618817703
O	3.2343027221	12.5242909912	11.8618818476
O	0.9059203264	13.0290622000	13.3446170553
O	3.7390737412	10.1959088086	13.3446170238
O	6.0556860157	10.7006798381	11.8618818154
O	7.8792970507	12.5242909300	11.8618817905
O	5.5509146426	13.0290622345	13.3446170301
O	8.3840678469	10.1959087513	13.3446171163
O	10.7006801768	10.7006798768	11.8618818234
O	12.5242911537	12.5242909767	11.8618818422
O	10.1959087844	13.0290621257	13.3446169587
O	13.0290621613	10.1959087448	13.3446170997
