      77
 i =       22, E =     -1335.5306185389
 Fe        18.3400715706       -0.0000151408       -0.0001175123
 Fe        15.2925316182       -0.0000002673       -0.0000016846
 Fe        12.2185729811       -0.0003345098        0.0012723506
 Fe         9.1374334468        0.0003723875        0.0000947258
 Fe         6.1235507233        0.0268517982        0.0001206251
 Fe         3.1104483080        0.0000043779       -0.0001636633
 Fe         0.0259403218       -0.0011562871       -0.0217922464
  O        18.3177071464        0.0317449128        2.1144582338
  O        18.3139019961       -0.0320808995       -2.1152746296
  O        19.8578659312       -1.2585260592        0.0187033538
  O        19.8575023134        1.2569658684       -0.0320749842
  O        15.2755412087        0.0326551378        2.1148001340
  O        15.2740561343       -0.0326678229       -2.1143689885
  O        16.8147770840       -1.2621491157        0.0256068182
  O        16.8148175581        1.2620568197       -0.0247299971
  O        12.2403218134        0.0305352643        2.1306808126
  O        12.2401444813       -0.0304629040       -2.1263805155
  O        13.7714047528       -1.2579169962        0.0281610814
  O        13.7716403013        1.2575802412       -0.0269362914
  O         9.2343933773       -0.0305001000        2.1720783908
  O         9.2349790908        0.0302675768       -2.1716933691
  O        10.7322775420       -1.2587918031       -0.0167559378
  O        10.7355692723        1.2584016089        0.0193122387
  O         6.1258101974        0.0295553646        2.2309136897
  O         6.1265209022        0.0387039351       -2.2297063835
  O         7.7488206943       -1.2950660419       -0.0280941114
  O         7.7750945518        1.3255960690        0.0275646217
  O         3.0088496606       -0.0284887254        2.1680528411
  O         3.0138599673        0.0273211910       -2.1720282311
  O         4.4985396647       -1.2950364915       -0.0278204531
  O         4.4689881896        1.3262189033        0.0284166520
  O        -0.0249283748        0.0292217535        2.1144485282
  O        -0.0309775700       -0.0295692851       -2.1644769188
  O         1.5113782155       -1.2574365558       -0.0220480146
  O         1.5063147470        1.2567971955       -0.0241826566
  H        18.4013062775       -0.8490585256       -2.6699220072
  H        18.3865673299        0.7774574920       -2.6828693302
  H        18.3784516017       -0.7778954385        2.6833283963
  H        18.3968606473        0.8489267456        2.6700740880
  H        19.8666219971       -2.2473911996        0.0222882281
  H        19.8683166373        2.2457678780       -0.0342844042
  H        15.1820994086       -0.8506076984       -2.6669249219
  H        15.1869137933        0.7759105805       -2.6811885311
  H        15.1847015459       -0.7757732387        2.6813043912
  H        15.1755830190        0.8506306426        2.6660225951
  H        16.8137127757       -2.2509968461        0.0293128321
  H        16.8138965614        2.2508981821       -0.0300755483
  H        11.9879977203       -0.8410641705       -2.6395794065
  H        12.0610579118        0.7792706161       -2.6710617972
  H        12.0656031843       -0.7798028881        2.6757880382
  H        11.9776441904        0.8398797016        2.6405129869
  H        13.7606762689       -2.2467571093        0.0272010918
  H        13.7602805511        2.2464069536       -0.0263771053
  H         9.0030949682       -0.7753545822       -2.7021738959
  H         9.0186849646        0.8499925727       -2.6870501355
  H         9.0313863198       -0.8503528731        2.6927905062
  H         8.9894622913        0.7746618583        2.6972327281
  H        10.7038031365       -2.2466230158       -0.0111309019
  H        10.7062091931        2.2460936864        0.0127200352
  H         6.1135976749       -0.7795945191       -2.7893566042
  H         6.1098120553        0.8485614029       -2.8017749908
  H         6.1110072871       -0.7784435398        2.8054542305
  H         6.1158968280        0.8495069012        2.7887142605
  H         7.7281299180       -2.2815900583       -0.0286772184
  H         7.7751722057        2.3126957019        0.0314948288
  H         3.2264986749       -0.7768866573       -2.7120382233
  H         3.1938217464        0.8499504961       -2.6959530346
  H         3.1766483524       -0.8511381219        2.6963348539
  H         3.2357527258        0.7749767618        2.7033126032
  H         4.5191256884       -2.2815831794       -0.0307834156
  H         4.4697838158        2.3132939367        0.0292360228
  H         0.1864987119       -0.8424190719       -2.6900607006
  H         0.1489102773        0.7806186950       -2.7080631965
  H         0.1350810588       -0.7805998773        2.6645721158
  H         0.1906720885        0.8418304140        2.6408915930
  H         1.5390264281       -2.2453575265       -0.0180131103
  H         1.5346156327        2.2445369455       -0.0239893181
