 DBCSR| Multiplication driver                                               BLAS
 DBCSR| Multrec recursion limit                                              512
 DBCSR| Multiplication stack size                                           1000
 DBCSR| Maximum elements for images                                    UNLIMITED
 DBCSR| Multiplicative factor virtual images                                   1
 DBCSR| Multiplication size stacks                                             3
 DBCSR| Number of 3D layers                                               SINGLE
 DBCSR| Use MPI memory allocation                                              T
 DBCSR| Use RMA algorithm                                                      F
 DBCSR| Use Communication thread                                               T
 DBCSR| Communication thread load                                             87


  **** **** ******  **  PROGRAM STARTED AT               2019-07-25 12:51:08.692
 ***** ** ***  *** **   PROGRAM STARTED ON        cpn-p28-40.cbls.ccr.buffalo.ed
 **    ****   ******    PROGRAM STARTED BY                              pavankum
 ***** **    ** ** **   PROGRAM PROCESS ID                                 96196
  **** **  *******  **  PROGRAM STARTED IN /projects/academic/mdupuis2/pavan/VAB
                                           _calculation/results_for_paper/2.Zn2+
                                           /gapw_pseudo/r_8

 CP2K| version string:                                          CP2K version 6.1
 CP2K| source code revision number:                                    svn:18464
 CP2K| cp2kflags: libint fftw3 libxc parallel mpi3 scalapack libderiv_max_am1=5 
 CP2K|            libint_max_am=6
 CP2K| is freely available from                            https://www.cp2k.org/
 CP2K| Program compiled at                          Fri Nov 30 14:17:09 EST 2018
 CP2K| Program compiled on                       srv-p22-12.cbls.ccr.buffalo.edu
 CP2K| Program compiled for                                                local
 CP2K| Data directory path    /projects/academic/mdupuis2/pavan/cp2k/cp2k-6.1/da
 CP2K| Input file name                                                 input.inp

 GLOBAL| Force Environment number                                              3
 GLOBAL| Basis set file name                                           BASIS_SET
 GLOBAL| Potential file name                                           POTENTIAL
 GLOBAL| MM Potential file name                                     MM_POTENTIAL
 GLOBAL| Coordinate file name                                     ./geometry.xyz
 GLOBAL| Force Environment number                                              1
 GLOBAL| Basis set file name            /projects/academic/mdupuis2/pavan/BASIS_
 GLOBAL| Potential file name            /projects/academic/mdupuis2/pavan/POTENT
 GLOBAL| MM Potential file name                                     MM_POTENTIAL
 GLOBAL| Coordinate file name                                       ./state0.xyz
 GLOBAL| Force Environment number                                              2
 GLOBAL| Basis set file name            /projects/academic/mdupuis2/pavan/BASIS_
 GLOBAL| Potential file name            /projects/academic/mdupuis2/pavan/POTENT
 GLOBAL| MM Potential file name                                     MM_POTENTIAL
 GLOBAL| Coordinate file name                                       ./state1.xyz
 GLOBAL| Method name                                                        CP2K
 GLOBAL| Project name                                                      p_zn_
 GLOBAL| Preferred FFT library                                             FFTW3
 GLOBAL| Preferred diagonalization lib.                                       SL
 GLOBAL| Run type                                                         ENERGY
 GLOBAL| All-to-all communication in single precision                          F
 GLOBAL| FFTs using library dependent lengths                                  T
 GLOBAL| Global print level                                               MEDIUM
 GLOBAL| Total number of message passing processes                            16
 GLOBAL| Number of threads for this process                                    1
 GLOBAL| This output is from process                                           0
 GLOBAL| CPU model name :  Intel(R) Xeon(R) CPU E5-2650 v3 @ 2.30GHz

 MEMORY| system memory details [Kb]
 MEMORY|                        rank 0           min           max       average
 MEMORY| MemTotal            131740876     131740876     131740876     131740876
 MEMORY| MemFree             116801688     116801688     116801688     116801688
 MEMORY| Buffers                346928        346928        346928        346928
 MEMORY| Cached               11236916      11236916      11236916      11236916
 MEMORY| Slab                   347560        347560        347560        347560
 MEMORY| SReclaimable           185464        185464        185464        185464
 MEMORY| MemLikelyFree       128570996     128570996     128570996     128570996


 *** Fundamental physical constants (SI units) ***

 *** Literature: B. J. Mohr and B. N. Taylor,
 ***             CODATA recommended values of the fundamental physical
 ***             constants: 2006, Web Version 5.1
 ***             http://physics.nist.gov/constants

 Speed of light in vacuum [m/s]                             2.99792458000000E+08
 Magnetic constant or permeability of vacuum [N/A**2]       1.25663706143592E-06
 Electric constant or permittivity of vacuum [F/m]          8.85418781762039E-12
 Planck constant (h) [J*s]                                  6.62606896000000E-34
 Planck constant (h-bar) [J*s]                              1.05457162825177E-34
 Elementary charge [C]                                      1.60217648700000E-19
 Electron mass [kg]                                         9.10938215000000E-31
 Electron g factor [ ]                                     -2.00231930436220E+00
 Proton mass [kg]                                           1.67262163700000E-27
 Fine-structure constant                                    7.29735253760000E-03
 Rydberg constant [1/m]                                     1.09737315685270E+07
 Avogadro constant [1/mol]                                  6.02214179000000E+23
 Boltzmann constant [J/K]                                   1.38065040000000E-23
 Atomic mass unit [kg]                                      1.66053878200000E-27
 Bohr radius [m]                                            5.29177208590000E-11

 *** Conversion factors ***

 [u] -> [a.u.]                                              1.82288848426455E+03
 [Angstrom] -> [Bohr] = [a.u.]                              1.88972613288564E+00
 [a.u.] = [Bohr] -> [Angstrom]                              5.29177208590000E-01
 [a.u.] -> [s]                                              2.41888432650478E-17
 [a.u.] -> [fs]                                             2.41888432650478E-02
 [a.u.] -> [J]                                              4.35974393937059E-18
 [a.u.] -> [N]                                              8.23872205491840E-08
 [a.u.] -> [K]                                              3.15774647902944E+05
 [a.u.] -> [kJ/mol]                                         2.62549961709828E+03
 [a.u.] -> [kcal/mol]                                       6.27509468713739E+02
 [a.u.] -> [Pa]                                             2.94210107994716E+13
 [a.u.] -> [bar]                                            2.94210107994716E+08
 [a.u.] -> [atm]                                            2.90362800883016E+08
 [a.u.] -> [eV]                                             2.72113838565563E+01
 [a.u.] -> [Hz]                                             6.57968392072181E+15
 [a.u.] -> [1/cm] (wave numbers)                            2.19474631370540E+05
 [a.u./Bohr**2] -> [1/cm]                                   5.14048714338585E+03
 
 MIXED_ENV| Number of created MPI groups:                                      1
 MIXED_ENV| Task to group correspondence:
  (   0 :    0)  (   1 :    0)  (   2 :    0)  (   3 :    0)
  (   4 :    0)  (   5 :    0)  (   6 :    0)  (   7 :    0)
  (   8 :    0)  (   9 :    0)  (  10 :    0)  (  11 :    0)
  (  12 :    0)  (  13 :    0)  (  14 :    0)  (  15 :    0)
          ----------------------------------------------------------------------
 COLVARS| COLVAR INPUT INDEX:        1
 COLVARS| ENERGY          >>> ATOMS:                                        all!
          ----------------------------------------------------------------------

 CELL_TOP| Volume [angstrom^3]:                                         8000.000
 CELL_TOP| Vector a [angstrom    20.000     0.000     0.000    |a| =      20.000
 CELL_TOP| Vector b [angstrom     0.000    20.000     0.000    |b| =      20.000
 CELL_TOP| Vector c [angstrom     0.000     0.000    20.000    |c| =      20.000
 CELL_TOP| Angle (b,c), alpha [degree]:                                   90.000
 CELL_TOP| Angle (a,c), beta  [degree]:                                   90.000
 CELL_TOP| Angle (a,b), gamma [degree]:                                   90.000
 CELL_TOP| Numerically orthorhombic:                                         YES

 GENERATE|  Preliminary Number of Bonds generated:                             0
 GENERATE|  Achieved consistency in connectivity generation.

 CELL| Volume [angstrom^3]:                                             8000.000
 CELL| Vector a [angstrom]:      20.000     0.000     0.000    |a| =      20.000
 CELL| Vector b [angstrom]:       0.000    20.000     0.000    |b| =      20.000
 CELL| Vector c [angstrom]:       0.000     0.000    20.000    |c| =      20.000
 CELL| Angle (b,c), alpha [degree]:                                       90.000
 CELL| Angle (a,c), beta  [degree]:                                       90.000
 CELL| Angle (a,b), gamma [degree]:                                       90.000
 CELL| Numerically orthorhombic:                                             YES

 CELL_REF| Volume [angstrom^3]:                                         8000.000
 CELL_REF| Vector a [angstrom    20.000     0.000     0.000    |a| =      20.000
 CELL_REF| Vector b [angstrom     0.000    20.000     0.000    |b| =      20.000
 CELL_REF| Vector c [angstrom     0.000     0.000    20.000    |c| =      20.000
 CELL_REF| Angle (b,c), alpha [degree]:                                   90.000
 CELL_REF| Angle (a,c), beta  [degree]:                                   90.000
 CELL_REF| Angle (a,b), gamma [degree]:                                   90.000
 CELL_REF| Numerically orthorhombic:                                         YES


 MOLECULE KIND INFORMATION


 All atoms are their own molecule, skipping detailed information
 nspins, nimgs, gapw_xc           2           1 F 

 ####### CHECKS ON A and B #######
  E_A before:  -116.03135970227277     
  E_B before:  -116.03135970227926     
 ####### - #######
##Inside build_kohn_sham_matrix() before doing any function calls
 i). ELECTRON ONLY CALLS
 1. Electron_pw   127.46375628357001     
 2. Electron_1c  -6.2465999855901480     
 ########## After 1st poisson call pure hartree  (sum of above two quantities) ##########   121.21715629797986     
 ########################
ii). NUCLEAR ONLY CALLS
 1. Nuclear_pw   302.45207174590877     
 2. Nuclear_1c  -133.62629575339506     
iii). REGULAR CALL (ELECTRON+NUCLEAR)
 1. Hartree_pw   66.847993975534479     
 2. Hartree_1c  -60.802448382728322     
 Regular: Before call to qs_vxc Regular_exc, exc1   0.0000000000000000        0.0000000000000000     
 Regular: After call to qs_vxc_create Regular_exc, exc1   0.0000000000000000        0.0000000000000000     
 iv). EXCHANGE ENERGY   -12.837664133769717     
 v). POTENTIAL ENERGY FROM CORE HAMILTONIAN   -117.64071589677383     
 vi). KINETIC ENERGY    167.70206303130135     
 vii). SELF ENERGY   -159.30058829583706     
      
 E_NUC is    9.5251876966766531     
      
IN build_kohn_sham_matrix() CALLING qs_ks_atom(),updates single atom contributions due to gapw
Inside build_kohn_sham_matrix() after doing all function calls and evaluating energy
 CHECK ON A IS DONE, E_A after passing modified PA_hat density:  -116.03135970227311     
##Inside build_kohn_sham_matrix() before doing any function calls
 i). ELECTRON ONLY CALLS
 1. Electron_pw   127.46375628354376     
 2. Electron_1c  -6.2465999856363084     
 ########## After 1st poisson call pure hartree  (sum of above two quantities) ##########   121.21715629790745     
 ########################
ii). NUCLEAR ONLY CALLS
 1. Nuclear_pw   302.45207174590877     
 2. Nuclear_1c  -133.62629575339506     
iii). REGULAR CALL (ELECTRON+NUCLEAR)
 1. Hartree_pw   66.847993975172415     
 2. Hartree_1c  -60.802448382476300     
 Regular: Before call to qs_vxc Regular_exc, exc1   0.0000000000000000        0.0000000000000000     
 Regular: After call to qs_vxc_create Regular_exc, exc1   0.0000000000000000        0.0000000000000000     
 iv). EXCHANGE ENERGY   -12.837664133828289     
 v). POTENTIAL ENERGY FROM CORE HAMILTONIAN   -117.64071589723422     
 vi). KINETIC ENERGY    167.70206303192396     
 vii). SELF ENERGY   -159.30058829583706     
      
 E_NUC is    9.5251876966766531     
      
IN build_kohn_sham_matrix() CALLING qs_ks_atom(),updates single atom contributions due to gapw
Inside build_kohn_sham_matrix() after doing all function calls and evaluating energy
 CHECK ON B IS DONE, E_B after passing modified PB_hat density:  -116.03135970227949     
 DOING ANTI-SYMMETRIC PART OF VAB
##Inside build_kohn_sham_matrix() before doing any function calls
 i). ELECTRON ONLY CALLS
 1. Electron_pw   1.2825692055512556E-009
 2. Electron_1c  -3.8936329293824012E-022
 ########## After 1st poisson call pure hartree  (sum of above two quantities) ##########   1.2825692055508662E-009
 ########################
ii). NUCLEAR ONLY CALLS
 1. Nuclear_pw   302.45207174590877     
 2. Nuclear_1c  -133.62629575339506     
iii). REGULAR CALL (ELECTRON+NUCLEAR)
 1. Hartree_pw   302.45178556998997     
 2. Hartree_1c  -133.62629575001122     
 Regular: Before call to qs_vxc Regular_exc, exc1   0.0000000000000000        0.0000000000000000     
 Regular: After call to qs_vxc_create Regular_exc, exc1   0.0000000000000000        0.0000000000000000     
 iv). EXCHANGE ENERGY   -1.6445288266425290E-002
 v). POTENTIAL ENERGY FROM CORE HAMILTONIAN    1.3682279379919856E-008
 vi). KINETIC ENERGY   -5.2747984160653331E-005
 vii). SELF ENERGY   -159.30058829583706     
      
 E_NUC is    9.5251876966766531     
      
IN build_kohn_sham_matrix() CALLING qs_ks_atom(),updates single atom contributions due to gapw
Inside build_kohn_sham_matrix() after doing all function calls and evaluating energy
 DOING SYMMETRIC PART OF VAB
##Inside build_kohn_sham_matrix() before doing any function calls
 i). ELECTRON ONLY CALLS
 1. Electron_pw   3.3589894063832445E-003
 2. Electron_1c  -1.6482609278241171E-004
 ########## After 1st poisson call pure hartree  (sum of above two quantities) ##########   3.1941633136008327E-003
 ########################
 ehartree, ehartree_1c after multiplying with DTPROD/DHPROD  0.65402439018094660       -3.2093070794765546E-002
 dtprod, dhprod are   1.0000000000000031        5.1358778920369240E-003
 J2_AB is   0.62193131938618107     
ii). NUCLEAR ONLY CALLS
 1. Nuclear_pw   302.45207174590877     
 2. Nuclear_1c  -133.62629575339506     
iii). REGULAR CALL (ELECTRON+NUCLEAR)
 1. Hartree_pw   300.59103962738584     
 2. Hartree_1c  -133.22028905876439     
 Regular: Before call to qs_vxc Regular_exc, exc1   0.0000000000000000        0.0000000000000000     
 Regular: After call to qs_vxc_create Regular_exc, exc1   0.0000000000000000        0.0000000000000000     
 iv). EXCHANGE ENERGY   -1.6782081053229266E-002
 v). POTENTIAL ENERGY FROM CORE HAMILTONIAN  -0.60429871613396924     
 vi). KINETIC ENERGY   0.86128063617704187     
 vii). SELF ENERGY   -159.30058829583706     
      
 E_NUC is    9.5251876966766531     
      
IN build_kohn_sham_matrix() CALLING qs_ks_atom(),updates single atom contributions due to gapw
 ########################
 #########  ET  #########
 ------------------------
 E_NUC   9.5251876966766531     
 HAA <a|H|a>  -125.55654739894982     
 HBB <b|H|b>  -125.55654739895613     
             
 <a|H1|b>  -1.2012376671628207     
 <a|H2|b>  0.55635484076191966     
 ...<a|J2|b>  0.62193131938618107     
 ...<a|K2|b>  -6.5576478624261414E-002
 HAB <a|H|b> -0.64488282640090100     
 SAB   5.1358778920369396E-003
 VAB   3.9731461301264131E-005
  VAB in different units 
 ------------------------
          1.0811480446506099E-003 eV
          8.7200478229078211      1/cm
          2.4931868172376737E-002 kcal/mol
         0.10431493643322427      kJ/mol
          261420457070.70840      Hertz
 ------------------------
 ------------------------
 E+  -125.55650744842251     
 E-  -125.55658694137158     
 (E+ - E-)/2   3.9746474540235288E-005
          1.0815565756591844E-003 eV
          8.7233428479966939      1/cm
          2.4941289121987200E-002 kcal/mol
         0.10435435368639444      kJ/mol
          261519239437.76489      Hertz
 ------------------------
 ------------------------
Inside build_kohn_sham_matrix() after doing all function calls and evaluating energy
 NO FORCE_EVAL section calculated the dipole

 ENERGY| Total FORCE_EVAL ( MIXED ) energy (a.u.):             0.000000000006494


 -------------------------------------------------------------------------------
 -                                                                             -
 -                                DBCSR STATISTICS                             -
 -                                                                             -
 -------------------------------------------------------------------------------
 COUNTER                                    TOTAL       BLAS       SMM       ACC
 flops    25 x    12 x    25               120000     100.0%      0.0%      0.0%
 flops    25 x    11 x    25               220000     100.0%      0.0%      0.0%
 flops    25 x    25 x    11              2722500     100.0%      0.0%      0.0%
 flops    25 x    25 x    12              2970000     100.0%      0.0%      0.0%
 flops inhomo. stacks                           0       0.0%      0.0%      0.0%
 flops total                         6.032500E+06     100.0%      0.0%      0.0%
 flops max/rank                      2.067500E+06     100.0%      0.0%      0.0%
 matmuls inhomo. stacks                         0       0.0%      0.0%      0.0%
 matmuls total                                420     100.0%      0.0%      0.0%
 number of processed stacks                   420     100.0%      0.0%      0.0%
 average stack size                                     1.0       0.0       0.0
 marketing flops                     7.930000E+06
 -------------------------------------------------------------------------------
 # multiplications                            138
 max memory usage/rank             724.586496E+06
 # max total images/rank                        1
 # max 3D layers                                1
 # MPI messages exchanged                   13248
 MPI messages size (bytes):
  total size                         4.084800E+06
  min size                           0.000000E+00
  max size                           5.000000E+03
  average size                     308.333344E+00
 MPI breakdown and total messages size (bytes):
             size <=      128               11556                        0
       128 < size <=     8192                1692                  4084800
      8192 < size <=    32768                   0                        0
     32768 < size <=   131072                   0                        0
    131072 < size <=  4194304                   0                        0
   4194304 < size <= 16777216                   0                        0
  16777216 < size                               0                        0
 -------------------------------------------------------------------------------

 MEMORY| Estimated peak process memory [MiB]                                 692

 -------------------------------------------------------------------------------
 -                                                                             -
 -                         MESSAGE PASSING PERFORMANCE                         -
 -                                                                             -
 -------------------------------------------------------------------------------

 ROUTINE             CALLS      AVE VOLUME [Bytes]
 MP_Group              271
 MP_Bcast              966                 761880.
 MP_Allreduce         3804                  13920.
 MP_Sync               755
 MP_Alltoall          6538                5059829.
 MP_ISendRecv        12180                  79043.
 MP_Wait             34582
 MP_comm_split         129
 MP_ISend            15928                 532328.
 MP_IRecv            15928                 532181.
 MP_Recv                24                   1200.
 MP_Memory            5456
 -------------------------------------------------------------------------------


 -------------------------------------------------------------------------------
 -                                                                             -
 -                           R E F E R E N C E S                               -
 -                                                                             -
 -------------------------------------------------------------------------------
 
 CP2K version 6.1, the CP2K developers group (2018).
 CP2K is freely available from https://www.cp2k.org/ .

 Schuett, Ole; Messmer, Peter; Hutter, Juerg; VandeVondele, Joost. 
 Electronic Structure Calculations on Graphics Processing Units, John Wiley & Sons, Ltd, 173-190 (2016). 
 GPU-Accelerated Sparse Matrix-Matrix Multiplication for Linear Scaling Density Functional Theory.
 http://dx.doi.org/10.1002/9781118670712.ch8


 Borstnik, U; VandeVondele, J; Weber, V; Hutter, J. 
 PARALLEL COMPUTING, 40 (5-6), 47-58 (2014). 
 Sparse matrix multiplication: The distributed block-compressed sparse
 row library.
 http://dx.doi.org/10.1016/j.parco.2014.03.012


 Hutter, J; Iannuzzi, M; Schiffmann, F; VandeVondele, J. 
 WILEY INTERDISCIPLINARY REVIEWS-COMPUTATIONAL MOLECULAR SCIENCE, 4 (1), 15-25 (2014). 
 CP2K: atomistic simulations of condensed matter systems.
 http://dx.doi.org/10.1002/wcms.1159


 Guidon, M; Hutter, J; VandeVondele, J. 
 JOURNAL OF CHEMICAL THEORY AND COMPUTATION, 5 (11), 3010-3021 (2009). 
 Robust Periodic Hartree-Fock Exchange for Large-Scale Simulations Using
 Gaussian Basis Sets.
 http://dx.doi.org/10.1021/ct900494g


 Guidon, M; Schiffmann, F; Hutter, J; VandeVondele, J. 
 JOURNAL OF CHEMICAL PHYSICS, 128 (21), 214104 (2008). 
 Ab initio molecular dynamics using hybrid density functionals.
 http://dx.doi.org/10.1063/1.2931945


 VandeVondele, J; Hutter, J. 
 JOURNAL OF CHEMICAL PHYSICS, 127 (11), 114105 (2007). 
 Gaussian basis sets for accurate calculations on molecular systems in
 gas and condensed phases.
 http://dx.doi.org/10.1063/1.2770708


 Genovese, L; Deutsch, T; Goedecker, S. 
 JOURNAL OF CHEMICAL PHYSICS, 127 (5), 054704 (2007). 
 Efficient and accurate three-dimensional Poisson solver for surface
 problems.
 http://dx.doi.org/10.1063/1.2754685


 Genovese, L; Deutsch, T; Neelov, A; Goedecker, S; Beylkin, G. 
 JOURNAL OF CHEMICAL PHYSICS, 125 (7), 074105 (2006). 
 Efficient solution of Poisson's equation with free boundary conditions.
 http://dx.doi.org/10.1063/1.2335442


 Krack, M. 
 THEORETICAL CHEMISTRY ACCOUNTS, 114 (1-3), 145-152 (2005). 
 Pseudopotentials for H to Kr optimized for gradient-corrected
 exchange-correlation functionals.
 http://dx.doi.org/10.1007/s00214-005-0655-y


 Frigo, M; Johnson, SG. 
 PROCEEDINGS OF THE IEEE, 93 (2), 216-231 (2005). 
 The design and implementation of FFTW3.
 http://dx.doi.org/10.1109/JPROC.2004.840301


 Lippert, G; Hutter, J; Parrinello, M. 
 THEORETICAL CHEMISTRY ACCOUNTS, 103 (2), 124-140 (1999). 
 The Gaussian and augmented-plane-wave density functional method for ab
 initio molecular dynamics simulations.
 http://dx.doi.org/10.1007/s002140050523


 Krack, M; Parrinello, M. 
 PHYSICAL CHEMISTRY CHEMICAL PHYSICS, 2 (10), 2105-2112 (2000). 
 All-electron ab-initio molecular dynamics.
 http://dx.doi.org/10.1039/b001167n


 Hartwigsen, C; Goedecker, S; Hutter, J. 
 PHYSICAL REVIEW B, 58 (7), 3641-3662 (1998). 
 Relativistic separable dual-space Gaussian pseudopotentials from H to Rn.
 http://dx.doi.org/10.1103/PhysRevB.58.3641


 Goedecker, S; Teter, M; Hutter, J. 
 PHYSICAL REVIEW B, 54 (3), 1703-1710 (1996). 
 Separable dual-space Gaussian pseudopotentials.
 http://dx.doi.org/10.1103/PhysRevB.54.1703


 -------------------------------------------------------------------------------
 -                                                                             -
 -                                T I M I N G                                  -
 -                                                                             -
 -------------------------------------------------------------------------------
 SUBROUTINE                       CALLS  ASD         SELF TIME        TOTAL TIME
                                MAXIMUM       AVERAGE  MAXIMUM  AVERAGE  MAXIMUM
 CP2K                                 1  1.0    0.051    0.063 1097.077 1097.077
 qs_ks_update_qs_env                 68  4.8    0.002    0.002 1054.269 1054.285
 rebuild_ks_matrix                   68  5.8    0.000    0.000 1054.263 1054.279
 qs_ks_build_kohn_sham_matrix        68  6.8    0.019    0.021 1054.263 1054.279
 qs_energies                          2  2.0    0.000    0.000  985.220  985.222
 scf_env_do_scf                       2  3.0    0.000    0.000  983.690  983.692
 scf_env_do_scf_inner_loop           64  4.0    0.003    0.005  983.689  983.692
 prepare_gapw_den                    76  7.5    0.006    0.008  890.529  890.905
 calculate_rho_atom                 144  8.7   67.280  879.486   67.284  879.541
 mp_sum_dv                          157  8.4  812.265  866.566  812.265  866.566
 pw_transfer                       1580  9.1    0.071    0.081   68.763   70.972
 fft_wrap_pw1pw2                   1504 10.1    0.012    0.013   68.544   70.738
 fft_wrap_pw1pw2_140                700 10.8    3.943    4.766   64.038   67.381
 fft3d_ps                          1504 12.1   35.591   38.461   54.887   55.922
 mp_sum_d                          1797  6.5   48.074   54.069   48.074   54.069
 Vh_1c_gg_integrals                  76  7.5    3.217   49.203   49.603   50.391
 hfx_ks_matrix                       68  7.8    0.001    0.001   47.099   47.101
 integrate_four_center               68  8.8    0.068    0.084   47.096   47.097
 qs_rho_update_rho                   70  4.8    0.001    0.001   39.790   39.790
 calculate_rho_elec                 140  5.8    0.486    0.661   39.720   39.720
 density_rs2pw                      140  6.8    0.007    0.008   37.206   37.781
 pw_poisson_solve                    76  7.5    1.050    1.173   33.661   33.670
 calc_screening_functions             2 10.0   24.598   25.020   24.901   25.318
 rs_pw_transfer                    1222  9.3    0.016    0.019   22.532   23.362
 -------------------------------------------------------------------------------

 The number of warnings for this run is : 0
 
 -------------------------------------------------------------------------------
  **** **** ******  **  PROGRAM ENDED AT                 2019-07-25 13:09:25.952
 ***** ** ***  *** **   PROGRAM RAN ON            cpn-p28-40.cbls.ccr.buffalo.ed
 **    ****   ******    PROGRAM RAN BY                                  pavankum
 ***** **    ** ** **   PROGRAM PROCESS ID                                 96196
  **** **  *******  **  PROGRAM STOPPED IN /projects/academic/mdupuis2/pavan/VAB
                                           _calculation/results_for_paper/2.Zn2+
                                           /gapw_pseudo/r_8
