>-------- START OF -MOLDEN- INPUT FILE --------<
[Molden Format]
[Atoms]
O1       1    8   -0.055958000    0.000000000    0.011722300
H2       2    1    0.891130000    0.000000000    0.037948900
H3       3    1   -0.334875000    0.000000000    0.911904800
O4       4    8    2.901343200    0.000000000   -0.098180500
H5       5    1    3.125863700    0.756062900   -0.616546100
H6       6    1    3.125863700   -0.756062900   -0.616546100
>--------  END OF  -MOLDEN- INPUT FILE --------<
>-------- START OF - XMOL - INPUT FILE --------<
       6
 HO-H ... OH2  , rhf 6-31G , -opt- geom                                         
O           -0.05596     0.00000     0.01172
H            0.89113     0.00000     0.03795
H           -0.33487     0.00000     0.91190
O            2.90134     0.00000    -0.09818
H            3.12586     0.75606    -0.61655
H            3.12586    -0.75606    -0.61655
>--------  END OF  - XMOL - INPUT FILE --------<
>-------- START OF -BIOSYM- INPUT FILE --------<
 $QMMM  
!BIOSYM archive 3
PBC=OFF
 HO-H ... OH2  , rhf 6-31G , -opt- geom                                         
!DATE
O1      -0.055958000    0.000000000    0.011722300 hondo-------<>      O   0.000
H2       0.891130000    0.000000000    0.037948900 hondo-------<>      H   0.000
H3      -0.334875000    0.000000000    0.911904800 hondo-------<>      H   0.000
O4       2.901343200    0.000000000   -0.098180500 hondo-------<>      O   0.000
H5       3.125863700    0.756062900   -0.616546100 hondo-------<>      H   0.000
H6       3.125863700   -0.756062900   -0.616546100 hondo-------<>      H   0.000
end  
end  
 $END   
>--------  END OF  -BIOSYM- INPUT FILE --------<
 ----- ORBITALS FROM -RHFCL- ----- 
 $VEC   
 1  1 0.86418105E-04 0.25067872E-03 0.68911940E-04 0.00000000E+00-0.21971518E-04
 1  2-0.83031544E-03-0.51130793E-03 0.00000000E+00 0.56524202E-04 0.29836133E-04
 1  3 0.11456701E-02 0.90596081E-04-0.25224593E-03 0.99576887E+00 0.22175511E-01
 1  4 0.62378203E-03 0.00000000E+00-0.18595789E-02-0.83161372E-02-0.38349096E-03
 1  5 0.00000000E+00 0.16776737E-02 0.12963020E-03 0.19079014E-02 0.12963020E-03
 1  6 0.19079014E-02
 2  1-0.99577725E+00-0.22328919E-01-0.12540912E-02 0.00000000E+00-0.16591014E-02
 2  2 0.90132670E-02 0.16529153E-02 0.00000000E+00 0.14857990E-02-0.41210631E-04
 2  3-0.33285377E-02-0.16113543E-03-0.17525477E-02 0.59624760E-04-0.29179101E-03
 2  4 0.17163082E-03 0.00000000E+00-0.45152273E-04 0.57933973E-03-0.73793426E-03
 2  5 0.00000000E+00 0.11478706E-03-0.12641515E-03 0.23468332E-03-0.12641515E-03
 2  6 0.23468332E-03
 3  1 0.12771851E-01-0.27613757E-01-0.62213073E-02 0.00000000E+00-0.48782865E-02
 3  2-0.27150497E-01-0.35045850E-02 0.00000000E+00-0.22420585E-02-0.13628701E-01
 3  3-0.18555802E-02-0.75804454E-02-0.23508185E-04 0.21245093E+00-0.46844986E+00
 3  4-0.40103208E-01 0.00000000E+00 0.10283070E+00-0.47809394E+00-0.17455520E-01
 3  5 0.00000000E+00 0.53070517E-01-0.14114728E+00 0.10672787E-01-0.14114728E+00
 3  6 0.10672787E-01
 4  1 0.21226591E+00-0.46513511E+00-0.64209900E-01 0.00000000E+00-0.92000457E-01
 4  2-0.48497584E+00-0.39107769E-01 0.00000000E+00-0.44981934E-01-0.13872202E+00
 4  3 0.24544116E-01-0.14409741E+00 0.40232597E-02-0.14243374E-01 0.34258624E-01
 4  4 0.70414580E-02 0.00000000E+00-0.79802671E-02 0.27903756E-01 0.10964051E-01
 4  5 0.00000000E+00-0.52800201E-02 0.11899443E-01-0.36224175E-02 0.11899443E-01
 4  6-0.36224175E-02
 5  1 0.00000000E+00 0.00000000E+00 0.00000000E+00-0.33584238E-02 0.00000000E+00
 5  2 0.00000000E+00 0.00000000E+00-0.37837596E-02 0.00000000E+00 0.00000000E+00
 5  3 0.00000000E+00 0.00000000E+00 0.00000000E+00 0.00000000E+00 0.00000000E+00
 5  4 0.00000000E+00-0.51150669E+00 0.00000000E+00 0.00000000E+00 0.00000000E+00
 5  5-0.27135453E+00 0.00000000E+00-0.26306169E+00-0.10877119E+00 0.26306169E+00
 5  6 0.10877119E+00
 6  1 0.61506151E-03-0.27604494E-02 0.40711055E+00 0.00000000E+00-0.27949893E+00
 6  2 0.62818202E-02 0.21995614E+00 0.00000000E+00-0.14717019E+00 0.25473455E+00
 6  3 0.10735755E+00-0.25729761E+00-0.11675960E+00-0.42905357E-02 0.81325461E-02
 6  4-0.10811549E+00 0.00000000E+00 0.40526692E-01 0.22447416E-01-0.79823923E-01
 6  5 0.00000000E+00 0.24883785E-01-0.25108016E-01-0.67210193E-02-0.25108016E-01
 6  6-0.67210193E-02
 7  1-0.18652181E-01 0.38525782E-01 0.25894340E-01 0.00000000E+00-0.12109573E+00
 7  2 0.97953245E-01 0.20864574E-01 0.00000000E+00-0.82557698E-01 0.12840866E-01
 7  3-0.48887822E-01-0.66568403E-01-0.31474329E-01 0.70354318E-01-0.16733588E+00
 7  4 0.23254320E+00 0.00000000E+00-0.48836896E+00-0.28365722E+00 0.16560180E+00
 7  5 0.00000000E+00-0.35666905E+00 0.13527831E+00 0.71337483E-01 0.13527831E+00
 7  6 0.71337483E-01
 8  1 0.51678490E-01-0.12327158E+00 0.14666280E+00 0.00000000E+00 0.31413641E+00
 8  2-0.20534395E+00 0.12308248E+00 0.00000000E+00 0.22061440E+00 0.65303910E-01
 8  3 0.29504421E-01 0.11981879E+00 0.70555394E-01 0.14689067E-01-0.39442036E-01
 8  4-0.39890354E+00 0.00000000E+00-0.27344981E+00-0.49156014E-01-0.32221932E+00
 8  5 0.00000000E+00-0.21051453E+00 0.19448634E-01 0.11549390E-01 0.19448634E-01
 8  6 0.11549390E-01
 9  1 0.49498131E-01-0.11855773E+00 0.31103456E+00 0.00000000E+00 0.30819615E+00
 9  2-0.18753834E+00 0.23134940E+00 0.00000000E+00 0.23625214E+00 0.12548565E+00
 9  3 0.20120501E-01 0.77573110E-01 0.42741962E-01 0.92138906E-02-0.21407408E-01
 9  4 0.40700028E+00 0.00000000E+00 0.11399800E+00-0.41444112E-01 0.31957722E+00
 9  5 0.00000000E+00 0.96754835E-01 0.15046765E-01 0.12645709E-01 0.15046765E-01
 9  6 0.12645709E-01
10  1 0.00000000E+00 0.00000000E+00 0.00000000E+00-0.63709602E+00 0.00000000E+00
10  2 0.00000000E+00 0.00000000E+00-0.51474311E+00 0.00000000E+00 0.00000000E+00
10  3 0.00000000E+00 0.00000000E+00 0.00000000E+00 0.00000000E+00 0.00000000E+00
10  4 0.00000000E+00 0.72289008E-02 0.00000000E+00 0.00000000E+00 0.00000000E+00
10  5 0.11992024E-02 0.00000000E+00 0.58306945E-02-0.51314801E-02-0.58306945E-02
10  6 0.51314801E-02
 $END   
 $EIG   
   10    0    0
 A   -0.20589007E+02 A   -0.20521802E+02 A   -0.13935487E+01 A   -0.13292232E+01
 A   -0.75219715E+00 A   -0.69283675E+00 A   -0.59506601E+00 A   -0.54368817E+00
 A   -0.51848898E+00 A   -0.47072081E+00
 $END   
 -MOA- Orbs for Fragment =    1
 1  1 0.00000000E+00
 2  1 0.00000000E+00
 3  1 0.00000000E+00
 4  1 0.25770940E-03
 5  1 0.37425940E-02
 6  1 0.72300337E-02
 7  1 0.23213080E-01
 8  1 0.24663561E+00
 9  1 0.99715503E+00
10  1 0.99992609E+00
11  1 0.99998065E+00
12  1 0.99999835E+00
13  1 0.99999999E+00
 $VEC 
 1  1 0.61026654E-01-0.10762957E+01 0.10752622E+00 0.18579148E-11-0.49390050E+00
 1  2 0.13726956E+01 0.58500601E+00-0.19941324E-11 0.22920673E+00-0.86133802E+00
 1  3 0.21780438E-01 0.38883007E+00-0.25211640E+00 0.81433233E-04-0.40005130E-02
 1  4 0.15097147E-02-0.55301004E-14 0.20995649E-03 0.86220852E-02-0.46011657E-03
 1  5 0.15204923E-13-0.97899003E-03 0.36187738E-02-0.88955421E-02 0.36187738E-02
 1  6-0.88955421E-02
 2  1-0.25229256E-01-0.77720148E+00-0.34834474E+00 0.71106013E-12 0.22031120E+00
 2  2 0.20566543E+01 0.26861932E+00-0.76293642E-12 0.81167090E+00-0.40396480E+00
 2  3 0.25002969E-01-0.46866873E+00-0.15042912E+01 0.12099108E-04-0.34961095E-03
 2  4-0.17038647E-02-0.20882030E-14-0.60352526E-03 0.15003382E-02 0.42675766E-02
 2  5 0.57513875E-14 0.17325470E-02 0.18419804E-02-0.35233660E-02 0.18419804E-02
 2  6-0.35233660E-02
 3  1 0.17070438E-01-0.35352204E+00 0.22298446E+00 0.16362094E-11 0.73026536E+00
 3  2 0.22402651E+00 0.32368322E-01-0.17562404E-11-0.69950428E+00-0.42797385E+00
 3  3 0.10994469E-01-0.69852664E+00 0.99848699E+00 0.63168182E-04-0.34939166E-02
 3  4 0.18952321E-02-0.48166898E-14-0.74363683E-04 0.73748531E-02-0.20983991E-02
 3  5 0.13277783E-13-0.50956265E-03 0.32136497E-02-0.73404372E-02 0.32136497E-02
 3  6-0.73404372E-02
 4  1 0.69385670E-01-0.81939020E+00 0.55768874E+00 0.12138948E-11-0.81842990E-01
 4  2 0.90899157E+00-0.12303848E+01-0.13027754E-11 0.32492222E+00 0.73406444E+00
 4  3 0.23116671E-01 0.10187774E+00-0.81899462E+00-0.11040514E-03-0.37051726E-02
 4  4 0.48979359E-02-0.35242235E-14-0.15363635E-02 0.87651616E-03-0.14379561E-01
 4  5 0.98623424E-14 0.36921575E-02-0.58660714E-02 0.11719621E-01-0.58660714E-02
 4  6 0.11719621E-01
 5  1-0.22340632E-12 0.43269327E-11-0.96003211E-12 0.96455688E+00-0.37082695E-12
 5  2-0.56876085E-11 0.11179612E-12-0.10351983E+01-0.18642506E-12 0.16919100E-11
 5  3-0.50908684E-13 0.61381635E-12 0.88056229E-12-0.43804712E-16 0.19138837E-13
 5  4-0.99960407E-14-0.28527631E-02 0.23131835E-14-0.34435516E-13 0.20126553E-13
 5  5 0.78372119E-02-0.39036523E-14-0.73826253E-02 0.10544750E-01 0.73826253E-02
 5  6-0.10544750E-01
 6  1-0.25036189E-01-0.11819412E+00 0.46932470E-02-0.33834558E-13-0.51739482E+00
 6  2 0.45623782E+00-0.19825614E+00 0.36360245E-13 0.11821082E+01-0.38103456E-01
 6  3-0.31785243E-01-0.11474383E+01 0.32314659E+00-0.18337654E-03-0.32680498E-02
 6  4 0.35850829E-02 0.14458747E-15 0.49989105E-02 0.51987280E-02-0.92348295E-02
 6  5-0.32382017E-15-0.12813963E-01-0.76390449E-02 0.73322227E-02-0.76390449E-02
 6  6 0.73322227E-02
 7  1-0.82972167E-01 0.61520980E+00 0.80697903E+00-0.84004881E-13-0.65402459E-01
 7  2-0.20636523E+00-0.56311413E+00 0.90042528E-13 0.38778751E+00-0.75845787E+00
 7  3 0.65148678E+00 0.17633621E-01-0.71567994E+00 0.13832915E-02 0.76074696E-02
 7  4 0.12527962E-01 0.72254556E-16 0.58470199E-03-0.37217527E-01 0.73431628E-02
 7  5-0.68020429E-15-0.28598250E-02 0.57104358E-02-0.11620556E-01 0.57104358E-02
 7  6-0.11620556E-01
 8  1-0.35979442E-01-0.53400953E+00-0.10007285E+00 0.27110549E-15 0.63262314E-01
 8  2 0.18971329E+01 0.12551790E+01-0.47468900E-15-0.14177087E+00 0.93164439E-01
 8  3-0.27507376E+01-0.19446098E+00 0.55536467E+00-0.53058866E-02-0.18409876E+00
 8  4 0.13565857E+00 0.12353595E-15-0.27884288E-01 0.31977540E+00-0.45859772E+00
 8  5-0.35783302E-18 0.66345501E-01-0.91476207E-01 0.17408173E+00-0.91476207E-01
 8  6 0.17408173E+00
 9  1-0.53201420E-01 0.12448146E+00 0.51487588E+00-0.16616279E-13 0.15866678E-01
 9  2 0.38042907E-01 0.28911940E+00-0.13445253E-13 0.53529835E-01 0.32200268E+00
 9  3 0.14945598E+00-0.79978551E-01-0.72835906E-01 0.16177711E-03 0.32447633E-01
 9  4-0.38446836E-01-0.11212524E-15 0.57505653E-02-0.38847586E-01 0.95028017E-01
 9  5 0.28207649E-15-0.12934391E-01 0.16278811E-01-0.32020964E-01 0.16278811E-01
 9  6-0.32020964E-01
10  1 0.20011221E-11 0.18499006E-12 0.26912647E-13 0.63705836E+00 0.18218827E-11
10  2-0.18129530E-12 0.18907161E-12 0.51499941E+00 0.11837096E-11-0.20674964E-13
10  3-0.11105236E-12 0.10759111E-11 0.44775274E-12-0.62087289E-15-0.33519046E-14
10  4 0.15927705E-14 0.14422867E-02 0.58317512E-14 0.84367494E-14-0.80130499E-14
10  5-0.38885840E-02-0.14777309E-13 0.42314621E-02-0.64446244E-02-0.42314621E-02
10  6 0.64446244E-02
11  1-0.47309828E-01 0.14651101E+00-0.66919321E-01 0.20075903E-11-0.53566254E+00
11  2 0.25444368E+00-0.97931209E-01 0.16233838E-11-0.36326847E+00 0.12958663E-01
11  3 0.11403145E-01-0.26033427E+00-0.13170391E+00 0.32928649E-04-0.25386579E-03
11  4-0.89097254E-03 0.43604591E-14-0.17688544E-02 0.89786565E-03 0.19677902E-02
11  5-0.12166414E-13 0.43356646E-02 0.26538175E-02-0.31722855E-02 0.26538175E-02
11  6-0.31722855E-02
12  1 0.15777254E+00-0.46306565E+00 0.15525069E+00 0.89529367E-12-0.87478101E-01
12  2-0.49836315E+00 0.96681912E-01 0.72343400E-12-0.22813774E-01-0.89925789E-02
12  3 0.65823337E-01-0.19208289E+00-0.20652796E-01 0.18464162E-03 0.39469656E-02
12  4-0.14131352E-03 0.20592264E-14-0.46368956E-04-0.94714031E-02 0.43832022E-02
12  5-0.54353730E-14 0.32762584E-03 0.92210778E-03-0.30366047E-03 0.92210778E-03
12  6-0.30366047E-03
13  1-0.10061012E+01 0.38096985E-02-0.99889665E-02 0.13147538E-11-0.49813396E-02
13  2 0.38573515E-01-0.46204983E-02 0.10618006E-11-0.26274052E-02 0.78856525E-03
13  3-0.65141890E-02 0.59145091E-02-0.26558264E-02-0.12872875E-04-0.31911383E-03
13  4 0.22404602E-03 0.32099888E-14-0.85431918E-04 0.57715090E-03-0.89478309E-03
13  5-0.82726333E-14 0.21849089E-03-0.18528977E-03 0.41670615E-03-0.18528977E-03
13  6 0.41670615E-03
 $END 
 -MOA- Orbs for Fragment =    2
 1  1 0.00000000E+00
 2  1 0.00000000E+00
 3  1 0.00000000E+00
 4  1 0.41047884E-04
 5  1 0.46868410E-02
 6  1 0.68097154E-02
 7  1 0.12532078E-01
 8  1 0.67060352E-01
 9  1 0.98286426E+00
10  1 0.99966218E+00
11  1 0.99997189E+00
12  1 0.99999257E+00
13  1 0.99999994E+00
 $VEC 
 1  1-0.10366305E-03 0.45699451E-03 0.12074953E-02-0.19391969E-03 0.89313980E-05
 1  2-0.99923481E-03 0.34115494E-03 0.35176031E-03 0.18352961E-03-0.92958084E-02
 1  3 0.84067344E-02-0.16195677E-02 0.15942259E-02 0.54928232E-01-0.37899080E+00
 1  4 0.77218920E-01-0.11485243E+00 0.74656756E+00 0.31105186E+00-0.25200790E+00
 1  5-0.15483126E+00-0.41733356E+00 0.85703950E+00-0.38935135E+00 0.55176370E+00
 1  6-0.56509923E+00
 2  1-0.73317945E-11 0.69986517E-10 0.13669470E-09-0.69193416E-03 0.54895746E-11
 2  2-0.83338746E-10-0.96610640E-10 0.57766593E-03 0.27906241E-11-0.62182980E-09
 2  3 0.50863638E-09-0.41606769E-10-0.11500214E-10-0.10648487E-08-0.19380486E-08
 2  4 0.14008100E-07 0.88620401E+00 0.89611760E-08 0.26390295E-07-0.11470626E-07
 2  5-0.17671248E+01-0.17816551E-07-0.39461933E-01 0.12884360E+01 0.39461946E-01
 2  6-0.12884361E+01
 3  1-0.22022107E-04 0.97083556E-04 0.25651941E-03 0.91282363E-03 0.18973740E-05
 3  2-0.21227675E-03 0.72474879E-04-0.16558149E-02 0.38988920E-04-0.19747953E-02
 3  3 0.17859211E-02-0.34405997E-03 0.33867642E-03 0.11668923E-01-0.80512582E-01
 3  4 0.16404324E-01 0.54063617E+00 0.15860036E+00 0.66079640E-01-0.53536396E-01
 3  5 0.72882569E+00-0.88658075E-01-0.56885826E+00-0.51502392E+00 0.86814357E+00
 3  6 0.31226106E+00
 4  1 0.25430798E-03-0.27666830E-02-0.52044944E-02-0.42377618E-10-0.23426691E-03
 4  2 0.30001106E-02 0.44419615E-02 0.61383476E-10-0.46637885E-05 0.21237957E-01
 4  3-0.16850848E-01 0.78269887E-03 0.15228341E-02 0.81816206E-01-0.15814190E+00
 4  4-0.56324665E+00 0.45245127E-08 0.86814842E-01-0.95531734E+00 0.34007423E+00
 4  5-0.61603782E-07 0.51187677E+00 0.17229852E+00 0.76060312E+00 0.17229848E+00
 4  6 0.76060304E+00
 5  1-0.35529054E-03-0.12744313E-01-0.62753125E-02-0.13561472E-14-0.12232288E-02
 5  2 0.32166324E-01 0.22433375E-01-0.45124494E-15 0.26163415E-02 0.15601677E-01
 5  3-0.53044017E-01-0.10132976E-01 0.20148967E-01 0.75129723E-02-0.12530562E+01
 5  4-0.20755598E+00 0.20601385E-11 0.38101735E+00 0.24868513E+01 0.54535383E+00
 5  5-0.65242187E-11-0.11655885E+01-0.72578561E+00-0.51267824E+00-0.72578561E+00
 5  6-0.51267824E+00
 6  1 0.26166198E-03 0.10762611E-01 0.39616233E-02 0.47121595E-14-0.52289559E-02
 6  2-0.26870628E-01-0.19106100E-01-0.10719290E-13 0.14131050E-01-0.20862861E-02
 6  3 0.33823100E-01-0.36012022E-02-0.48710163E-02-0.64325996E-01 0.10432053E+01
 6  4 0.13767190E+00-0.67557765E-12 0.53794935E+00-0.14738339E+01-0.15392472E+00
 6  5-0.14316326E-12-0.56132598E+00-0.35469006E+00 0.62873951E+00-0.35469006E+00
 6  6 0.62873951E+00
 7  1-0.18518173E-15-0.14918622E-14 0.16974269E-14 0.72006186E-02 0.41457723E-14
 7  2 0.34972025E-14 0.34139358E-14-0.16086098E-01-0.10480332E-13-0.16885798E-13
 7  3 0.11574075E-13 0.48398785E-14-0.39170056E-14 0.31571967E-13-0.49235616E-12
 7  4 0.20817376E-12-0.32286460E+00-0.22446628E-12 0.91709973E-12-0.26170732E-12
 7  5 0.29423695E+00 0.33717473E-12-0.66395084E+00 0.11018467E+01 0.66395084E+00
 7  6-0.11018467E+01
 8  1-0.33276694E-02-0.70356026E-01-0.13015945E-01 0.24329497E-15 0.61844158E-02
 8  2 0.26906089E+00 0.12333939E+00-0.52432017E-15-0.20845831E-01 0.80579267E-01
 8  3-0.55230436E+00-0.22246990E-01 0.96324012E-01 0.59555648E-01-0.56462170E+00
 8  4 0.78738031E+00 0.10602630E-13-0.82027023E-01 0.13205357E+00-0.10221054E+01
 8  5-0.63560268E-14 0.25507809E+00-0.17013150E+00 0.52151043E+00-0.17013150E+00
 8  6 0.52151043E+00
 9  1-0.23711551E-02-0.66996691E-01-0.22727078E-01-0.69822620E-16 0.73151272E-02
 9  2 0.22354370E+00 0.12000435E+00 0.56378513E-16-0.23691453E-01 0.83913205E-01
 9  3-0.44324837E+00-0.20145143E-01 0.87455109E-01-0.97407383E-01 0.29341085E+00
 9  4-0.46839771E+00-0.16608243E-13 0.41693402E-01 0.47134559E+00-0.49534573E+00
 9  5-0.92981178E-14 0.51366569E-01-0.21382726E-01-0.13270048E-01-0.21382726E-01
 9  6-0.13270048E-01
10  1-0.22124523E-04-0.10521251E-01-0.85204009E-02-0.94643477E-13 0.11540941E-02
10  2 0.22518175E-01 0.20430691E-01 0.20333691E-12-0.39425682E-02 0.20373473E-01
10  3-0.41857625E-01-0.31784406E-02 0.12841372E-01-0.31453108E-01 0.36479340E+00
10  4 0.35873497E+00-0.24174600E-10-0.79979053E-01 0.33849604E+00 0.26778240E+00
10  5-0.12824242E-10-0.30961688E-01 0.15172718E+00 0.90276552E-02 0.15172718E+00
10  6 0.90276553E-02
11  1 0.18509667E-03 0.20412643E-02-0.34583722E-04 0.12615880E-11 0.16827740E-02
11  2-0.10889999E-01-0.39876188E-02-0.27110715E-11-0.41966951E-02-0.40781167E-02
11  3 0.27282249E-01 0.48089882E-02-0.80765731E-02-0.16822716E-01 0.95900132E-01
11  4 0.14862187E+00 0.32206560E-09 0.57426419E+00 0.18557590E+00 0.13545942E+00
11  5 0.17086144E-09 0.42706956E+00-0.12723854E+00-0.56896354E-01-0.12723854E+00
11  6-0.56896354E-01
12  1 0.11497075E-12 0.17639735E-11 0.41612829E-12-0.20037898E-02 0.10083664E-11
12  2-0.78111372E-11-0.34917711E-11 0.43061717E-02-0.24624523E-11-0.35455111E-11
12  3 0.18991475E-10 0.31901491E-11-0.57149216E-11-0.21081539E-09 0.52238609E-10
12  4 0.81720763E-10-0.51154398E+00 0.36643678E-09 0.11641310E-09 0.76551716E-10
12  5-0.27138274E+00 0.27129681E-09-0.26307042E+00-0.10877502E+00 0.26307042E+00
12  6 0.10877502E+00
13  1 0.13037623E-04 0.97304075E-04-0.17583143E-03-0.39786808E-12-0.18772070E-04
13  2-0.56297458E-03 0.71077247E-04 0.85505900E-12 0.36608445E-04 0.73240095E-04
13  3 0.84375540E-03-0.61204468E-04 0.11165434E-03 0.10158359E+01-0.45827688E-01
13  4-0.25576084E-01-0.10157446E-09-0.56491944E-02-0.78463767E-01-0.19652843E-01
13  5-0.53887110E-10-0.48591897E-02-0.17500615E-01 0.43920177E-02-0.17500615E-01
13  6 0.43920177E-02
 $END 
>-------- START OF -BIOSYM- INPUT FILE --------<
 $QMMM  
!BIOSYM archive 3
PBC=OFF
 HO-H ... OH2  , rhf 6-31G , -opt- geom                                         
!DATE
O1      -0.055958000    0.000000000    0.011722300 hondo-------<>      O  -0.852
H2       0.891130000    0.000000000    0.037948900 hondo-------<>      H   0.441
H3      -0.334875000    0.000000000    0.911904800 hondo-------<>      H   0.384
O4       2.901343200    0.000000000   -0.098180500 hondo-------<>      O  -0.803
H5       3.125863700    0.756062900   -0.616546100 hondo-------<>      H   0.414
H6       3.125863700   -0.756062900   -0.616546100 hondo-------<>      H   0.414
end  
end  
 $END   
>--------  END OF  -BIOSYM- INPUT FILE --------<
>-------- START OF -MOLDEN- INPUT FILE --------<
[Molden Format]
[Atoms]
O1       1    8   -0.055958000    0.000000000    0.011722300
H2       2    1    0.891130000    0.000000000    0.037948900
H3       3    1   -0.334875000    0.000000000    0.911904800
O4       4    8    2.901343200    0.000000000   -0.098180500
H5       5    1    3.125863700    0.756062900   -0.616546100
H6       6    1    3.125863700   -0.756062900   -0.616546100
>--------  END OF  -MOLDEN- INPUT FILE --------<
>-------- START OF - XMOL - INPUT FILE --------<
       6
 HO-H ... OH2  , rhf 6-31G , -opt- geom                                         
O           -0.05596     0.00000     0.01172
H            0.89113     0.00000     0.03795
H           -0.33487     0.00000     0.91190
O            2.90134     0.00000    -0.09818
H            3.12586     0.75606    -0.61655
H            3.12586    -0.75606    -0.61655
>--------  END OF  - XMOL - INPUT FILE --------<
