 DBCSR| Multiplication driver                                               BLAS
 DBCSR| Multrec recursion limit                                              512
 DBCSR| Multiplication stack size                                           1000
 DBCSR| Maximum elements for images                                    UNLIMITED
 DBCSR| Multiplicative factor virtual images                                   1
 DBCSR| Multiplication size stacks                                             3
 DBCSR| Number of 3D layers                                               SINGLE
 DBCSR| Use MPI memory allocation                                              T
 DBCSR| Use RMA algorithm                                                      F
 DBCSR| Use Communication thread                                               T
 DBCSR| Communication thread load                                             87


  **** **** ******  **  PROGRAM STARTED AT               2019-07-25 12:54:23.153
 ***** ** ***  *** **   PROGRAM STARTED ON        cpn-u28-40.cbls.ccr.buffalo.ed
 **    ****   ******    PROGRAM STARTED BY                              pavankum
 ***** **    ** ** **   PROGRAM PROCESS ID                                 32907
  **** **  *******  **  PROGRAM STARTED IN /projects/academic/mdupuis2/pavan/VAB
                                           _calculation/results_for_paper/2.Zn2+
                                           /gpw_pseudo/r_5

 CP2K| version string:                                          CP2K version 6.1
 CP2K| source code revision number:                                    svn:18464
 CP2K| cp2kflags: libint fftw3 libxc parallel mpi3 scalapack libderiv_max_am1=5 
 CP2K|            libint_max_am=6
 CP2K| is freely available from                            https://www.cp2k.org/
 CP2K| Program compiled at                          Fri Nov 30 14:17:09 EST 2018
 CP2K| Program compiled on                       srv-p22-12.cbls.ccr.buffalo.edu
 CP2K| Program compiled for                                                local
 CP2K| Data directory path    /projects/academic/mdupuis2/pavan/cp2k/cp2k-6.1/da
 CP2K| Input file name                                                 input.inp

 GLOBAL| Force Environment number                                              3
 GLOBAL| Basis set file name                                           BASIS_SET
 GLOBAL| Potential file name                                           POTENTIAL
 GLOBAL| MM Potential file name                                     MM_POTENTIAL
 GLOBAL| Coordinate file name                                     ./geometry.xyz
 GLOBAL| Force Environment number                                              1
 GLOBAL| Basis set file name            /projects/academic/mdupuis2/pavan/BASIS_
 GLOBAL| Potential file name            /projects/academic/mdupuis2/pavan/POTENT
 GLOBAL| MM Potential file name                                     MM_POTENTIAL
 GLOBAL| Coordinate file name                                       ./state0.xyz
 GLOBAL| Force Environment number                                              2
 GLOBAL| Basis set file name            /projects/academic/mdupuis2/pavan/BASIS_
 GLOBAL| Potential file name            /projects/academic/mdupuis2/pavan/POTENT
 GLOBAL| MM Potential file name                                     MM_POTENTIAL
 GLOBAL| Coordinate file name                                       ./state1.xyz
 GLOBAL| Method name                                                        CP2K
 GLOBAL| Project name                                                      p_zn_
 GLOBAL| Preferred FFT library                                             FFTW3
 GLOBAL| Preferred diagonalization lib.                                       SL
 GLOBAL| Run type                                                         ENERGY
 GLOBAL| All-to-all communication in single precision                          F
 GLOBAL| FFTs using library dependent lengths                                  T
 GLOBAL| Global print level                                               MEDIUM
 GLOBAL| Total number of message passing processes                            16
 GLOBAL| Number of threads for this process                                    1
 GLOBAL| This output is from process                                           0
 GLOBAL| CPU model name :  Intel(R) Xeon(R) Gold 5118 CPU @ 2.30GHz

 MEMORY| system memory details [Kb]
 MEMORY|                        rank 0           min           max       average
 MEMORY| MemTotal             97288368      97288368      97288368      97288368
 MEMORY| MemFree              93127976      93127976      93127976      93127976
 MEMORY| Buffers                322892        322892        322892        322892
 MEMORY| Cached                 589540        589540        589540        589540
 MEMORY| Slab                   419036        419036        419036        419036
 MEMORY| SReclaimable           159388        159388        159388        159388
 MEMORY| MemLikelyFree        94199796      94199796      94199796      94199796


 *** Fundamental physical constants (SI units) ***

 *** Literature: B. J. Mohr and B. N. Taylor,
 ***             CODATA recommended values of the fundamental physical
 ***             constants: 2006, Web Version 5.1
 ***             http://physics.nist.gov/constants

 Speed of light in vacuum [m/s]                             2.99792458000000E+08
 Magnetic constant or permeability of vacuum [N/A**2]       1.25663706143592E-06
 Electric constant or permittivity of vacuum [F/m]          8.85418781762039E-12
 Planck constant (h) [J*s]                                  6.62606896000000E-34
 Planck constant (h-bar) [J*s]                              1.05457162825177E-34
 Elementary charge [C]                                      1.60217648700000E-19
 Electron mass [kg]                                         9.10938215000000E-31
 Electron g factor [ ]                                     -2.00231930436220E+00
 Proton mass [kg]                                           1.67262163700000E-27
 Fine-structure constant                                    7.29735253760000E-03
 Rydberg constant [1/m]                                     1.09737315685270E+07
 Avogadro constant [1/mol]                                  6.02214179000000E+23
 Boltzmann constant [J/K]                                   1.38065040000000E-23
 Atomic mass unit [kg]                                      1.66053878200000E-27
 Bohr radius [m]                                            5.29177208590000E-11

 *** Conversion factors ***

 [u] -> [a.u.]                                              1.82288848426455E+03
 [Angstrom] -> [Bohr] = [a.u.]                              1.88972613288564E+00
 [a.u.] = [Bohr] -> [Angstrom]                              5.29177208590000E-01
 [a.u.] -> [s]                                              2.41888432650478E-17
 [a.u.] -> [fs]                                             2.41888432650478E-02
 [a.u.] -> [J]                                              4.35974393937059E-18
 [a.u.] -> [N]                                              8.23872205491840E-08
 [a.u.] -> [K]                                              3.15774647902944E+05
 [a.u.] -> [kJ/mol]                                         2.62549961709828E+03
 [a.u.] -> [kcal/mol]                                       6.27509468713739E+02
 [a.u.] -> [Pa]                                             2.94210107994716E+13
 [a.u.] -> [bar]                                            2.94210107994716E+08
 [a.u.] -> [atm]                                            2.90362800883016E+08
 [a.u.] -> [eV]                                             2.72113838565563E+01
 [a.u.] -> [Hz]                                             6.57968392072181E+15
 [a.u.] -> [1/cm] (wave numbers)                            2.19474631370540E+05
 [a.u./Bohr**2] -> [1/cm]                                   5.14048714338585E+03
 
 MIXED_ENV| Number of created MPI groups:                                      1
 MIXED_ENV| Task to group correspondence:
  (   0 :    0)  (   1 :    0)  (   2 :    0)  (   3 :    0)
  (   4 :    0)  (   5 :    0)  (   6 :    0)  (   7 :    0)
  (   8 :    0)  (   9 :    0)  (  10 :    0)  (  11 :    0)
  (  12 :    0)  (  13 :    0)  (  14 :    0)  (  15 :    0)
          ----------------------------------------------------------------------
 COLVARS| COLVAR INPUT INDEX:        1
 COLVARS| ENERGY          >>> ATOMS:                                        all!
          ----------------------------------------------------------------------

 CELL_TOP| Volume [angstrom^3]:                                         8000.000
 CELL_TOP| Vector a [angstrom    20.000     0.000     0.000    |a| =      20.000
 CELL_TOP| Vector b [angstrom     0.000    20.000     0.000    |b| =      20.000
 CELL_TOP| Vector c [angstrom     0.000     0.000    20.000    |c| =      20.000
 CELL_TOP| Angle (b,c), alpha [degree]:                                   90.000
 CELL_TOP| Angle (a,c), beta  [degree]:                                   90.000
 CELL_TOP| Angle (a,b), gamma [degree]:                                   90.000
 CELL_TOP| Numerically orthorhombic:                                         YES

 GENERATE|  Preliminary Number of Bonds generated:                             0
 GENERATE|  Achieved consistency in connectivity generation.

 CELL| Volume [angstrom^3]:                                             8000.000
 CELL| Vector a [angstrom]:      20.000     0.000     0.000    |a| =      20.000
 CELL| Vector b [angstrom]:       0.000    20.000     0.000    |b| =      20.000
 CELL| Vector c [angstrom]:       0.000     0.000    20.000    |c| =      20.000
 CELL| Angle (b,c), alpha [degree]:                                       90.000
 CELL| Angle (a,c), beta  [degree]:                                       90.000
 CELL| Angle (a,b), gamma [degree]:                                       90.000
 CELL| Numerically orthorhombic:                                             YES

 CELL_REF| Volume [angstrom^3]:                                         8000.000
 CELL_REF| Vector a [angstrom    20.000     0.000     0.000    |a| =      20.000
 CELL_REF| Vector b [angstrom     0.000    20.000     0.000    |b| =      20.000
 CELL_REF| Vector c [angstrom     0.000     0.000    20.000    |c| =      20.000
 CELL_REF| Angle (b,c), alpha [degree]:                                   90.000
 CELL_REF| Angle (a,c), beta  [degree]:                                   90.000
 CELL_REF| Angle (a,b), gamma [degree]:                                   90.000
 CELL_REF| Numerically orthorhombic:                                         YES


 MOLECULE KIND INFORMATION


 All atoms are their own molecule, skipping detailed information
 nspins, nimgs, gapw_xc           2           1 F 

 ####### CHECKS ON A and B #######
  E_A before:  -116.03597277623851     
  E_B before:  -116.03597277616926     
 ####### - #######
##Inside build_kohn_sham_matrix() before doing any function calls
 i). ELECTRON ONLY CALLS
 1. Electron_pw   126.43078308307912     
 2. Electron_1c   0.0000000000000000     
 ########## After 1st poisson call pure hartree  (sum of above two quantities) ##########   126.43078308307912     
 ########################
 1. Nuclear_pw   174.54089192010662     
 2. Nuclear_1c   0.0000000000000000     
 1. Hartree_pw   6.0235287916581495     
 2. Hartree_1c   0.0000000000000000     
 Regular: Before call to qs_vxc Regular_exc, exc1   0.0000000000000000        0.0000000000000000     
 Regular: After call to qs_vxc_create Regular_exc, exc1   0.0000000000000000        0.0000000000000000     
 iv). EXCHANGE ENERGY   -12.812880242963672     
 v). POTENTIAL ENERGY FROM CORE HAMILTONIAN   -117.67896195581285     
 vi). KINETIC ENERGY    167.73292892671265     
 vii). SELF ENERGY   -159.30058829583706     
      
 E_NUC is    15.240303624269558     
      
IN build_kohn_sham_matrix() CALLING qs_ks_atom(),updates single atom contributions due to gapw
Inside build_kohn_sham_matrix() after doing all function calls and evaluating energy
 CHECK ON A IS DONE, E_A after passing modified PA_hat density:  -116.03597277624279     
##Inside build_kohn_sham_matrix() before doing any function calls
 i). ELECTRON ONLY CALLS
 1. Electron_pw   126.43080578218499     
 2. Electron_1c   0.0000000000000000     
 ########## After 1st poisson call pure hartree  (sum of above two quantities) ##########   126.43080578218499     
 ########################
 1. Nuclear_pw   174.54089192010662     
 2. Nuclear_1c   0.0000000000000000     
 1. Hartree_pw   6.0235369037645778     
 2. Hartree_1c   0.0000000000000000     
 Regular: Before call to qs_vxc Regular_exc, exc1   0.0000000000000000        0.0000000000000000     
 Regular: After call to qs_vxc_create Regular_exc, exc1   0.0000000000000000        0.0000000000000000     
 iv). EXCHANGE ENERGY   -12.812889141275896     
 v). POTENTIAL ENERGY FROM CORE HAMILTONIAN   -117.67895291515781     
 vi). KINETIC ENERGY    167.73292067233484     
 vii). SELF ENERGY   -159.30058829583706     
      
 E_NUC is    15.240303624269558     
      
IN build_kohn_sham_matrix() CALLING qs_ks_atom(),updates single atom contributions due to gapw
Inside build_kohn_sham_matrix() after doing all function calls and evaluating energy
 CHECK ON B IS DONE, E_B after passing modified PB_hat density:  -116.03597277617135     
 DOING ANTI-SYMMETRIC PART OF VAB
##Inside build_kohn_sham_matrix() before doing any function calls
 i). ELECTRON ONLY CALLS
 1. Electron_pw   8.4228611737666918E-005
 2. Electron_1c   0.0000000000000000     
 ########## After 1st poisson call pure hartree  (sum of above two quantities) ##########   8.4228611737666918E-005
 ########################
 1. Nuclear_pw   174.54089192010662     
 2. Nuclear_1c   0.0000000000000000     
 1. Hartree_pw   174.42377064922115     
 2. Hartree_1c   0.0000000000000000     
 Regular: Before call to qs_vxc Regular_exc, exc1   0.0000000000000000        0.0000000000000000     
 Regular: After call to qs_vxc_create Regular_exc, exc1   0.0000000000000000        0.0000000000000000     
 iv). EXCHANGE ENERGY   -1.5948239236981777E-002
 v). POTENTIAL ENERGY FROM CORE HAMILTONIAN    4.4934016436991991E-004
 vi). KINETIC ENERGY   -3.5048871633657336E-003
 vii). SELF ENERGY   -159.30058829583706     
      
 E_NUC is    15.240303624269558     
      
IN build_kohn_sham_matrix() CALLING qs_ks_atom(),updates single atom contributions due to gapw
Inside build_kohn_sham_matrix() after doing all function calls and evaluating energy
 DOING SYMMETRIC PART OF VAB
##Inside build_kohn_sham_matrix() before doing any function calls
 i). ELECTRON ONLY CALLS
 1. Electron_pw   57.879732062926031     
 2. Electron_1c   0.0000000000000000     
 ########## After 1st poisson call pure hartree  (sum of above two quantities) ##########   57.879732062926031     
 ########################
 ehartree, ehartree_1c after multiplying with DTPROD/DHPROD  -85.525888270245233       -0.0000000000000000     
 dtprod, dhprod are -0.99999999999999944       0.67675101929414938     
 J2_AB is   -85.525888270245233     
 1. Nuclear_pw   174.54089192010662     
 2. Nuclear_1c   0.0000000000000000     
 1. Hartree_pw   32.836734420550705     
 2. Hartree_1c   0.0000000000000000     
 Regular: Before call to qs_vxc Regular_exc, exc1   0.0000000000000000        0.0000000000000000     
 Regular: After call to qs_vxc_create Regular_exc, exc1   0.0000000000000000        0.0000000000000000     
 iv). EXCHANGE ENERGY   -5.8704392547976036     
 v). POTENTIAL ENERGY FROM CORE HAMILTONIAN   -79.650426985733986     
 vi). KINETIC ENERGY    113.51492247306543     
 vii). SELF ENERGY   -159.30058829583706     
      
 E_NUC is    15.240303624269558     
      
IN build_kohn_sham_matrix() CALLING qs_ks_atom(),updates single atom contributions due to gapw
 ########################
 #########  ET  #########
 ------------------------
 E_NUC   15.240303624269558     
 HAA <a|H|a>  -131.27627640051236     
 HBB <b|H|b>  -131.27627640044096     
             
 <a|H1|b>   165.71939407515035     
 <a|H2|b>  -76.875009514766077     
 ...<a|J2|b>  -85.525888270245233     
 ...<a|K2|b>   8.6508787554791517     
 HAB <a|H|b>   88.844384560384270     
 SAB -0.67675101929414905     
 VAB   5.5916092277239872E-003
  VAB in different units 
 ------------------------
         0.15215542507145971      eV
          1227.2163740228320      1/cm
          3.5087877357439199      kcal/mol
          14.680767886352561      kJ/mol
          36791021326615.211      Hertz
 ------------------------
 ------------------------
 E+  -131.26690066408176     
 E-  -131.27808388247456     
 (E+ - E-)/2   5.5916091964070330E-003
         0.15215542421928205      eV
          1227.2163671495550      1/cm
          3.5087877160922343      kcal/mol
          14.680767804129909      kJ/mol
          36791021120559.547      Hertz
 ------------------------
 ------------------------
Inside build_kohn_sham_matrix() after doing all function calls and evaluating energy
 NO FORCE_EVAL section calculated the dipole

 ENERGY| Total FORCE_EVAL ( MIXED ) energy (a.u.):            -0.000000000069249


 -------------------------------------------------------------------------------
 -                                                                             -
 -                                DBCSR STATISTICS                             -
 -                                                                             -
 -------------------------------------------------------------------------------
 COUNTER                                    TOTAL       BLAS       SMM       ACC
 flops    25 x    12 x    25               120000     100.0%      0.0%      0.0%
 flops    25 x    11 x    25               220000     100.0%      0.0%      0.0%
 flops    25 x    25 x    11               577500     100.0%      0.0%      0.0%
 flops    25 x    25 x    12               630000     100.0%      0.0%      0.0%
 flops inhomo. stacks                           0       0.0%      0.0%      0.0%
 flops total                         1.547500E+06     100.0%      0.0%      0.0%
 flops max/rank                    572.500000E+03     100.0%      0.0%      0.0%
 matmuls inhomo. stacks                         0       0.0%      0.0%      0.0%
 matmuls total                                108     100.0%      0.0%      0.0%
 number of processed stacks                   108     100.0%      0.0%      0.0%
 average stack size                                     1.0       0.0       0.0
 marketing flops                     1.950000E+06
 -------------------------------------------------------------------------------
 # multiplications                             34
 max memory usage/rank             513.978368E+06
 # max total images/rank                        1
 # max 3D layers                                1
 # MPI messages exchanged                    3264
 MPI messages size (bytes):
  total size                         1.214400E+06
  min size                           0.000000E+00
  max size                           5.000000E+03
  average size                     372.058838E+00
 MPI breakdown and total messages size (bytes):
             size <=      128                2820                        0
       128 < size <=     8192                 444                  1214400
      8192 < size <=    32768                   0                        0
     32768 < size <=   131072                   0                        0
    131072 < size <=  4194304                   0                        0
   4194304 < size <= 16777216                   0                        0
  16777216 < size                               0                        0
 -------------------------------------------------------------------------------

 MEMORY| Estimated peak process memory [MiB]                                 495

 -------------------------------------------------------------------------------
 -                                                                             -
 -                         MESSAGE PASSING PERFORMANCE                         -
 -                                                                             -
 -------------------------------------------------------------------------------

 ROUTINE             CALLS      AVE VOLUME [Bytes]
 MP_Group               63
 MP_Bcast              266                2615887.
 MP_Allreduce          774                   2088.
 MP_Sync               183
 MP_Alltoall          1524                5261893.
 MP_ISendRecv         2820                  76532.
 MP_Wait              7396
 MP_comm_split          25
 MP_ISend             3104                 470964.
 MP_IRecv             3104                 470617.
 MP_Recv                12                   1200.
 MP_Memory            1296
 -------------------------------------------------------------------------------


 -------------------------------------------------------------------------------
 -                                                                             -
 -                           R E F E R E N C E S                               -
 -                                                                             -
 -------------------------------------------------------------------------------
 
 CP2K version 6.1, the CP2K developers group (2018).
 CP2K is freely available from https://www.cp2k.org/ .

 Schuett, Ole; Messmer, Peter; Hutter, Juerg; VandeVondele, Joost. 
 Electronic Structure Calculations on Graphics Processing Units, John Wiley & Sons, Ltd, 173-190 (2016). 
 GPU-Accelerated Sparse Matrix-Matrix Multiplication for Linear Scaling Density Functional Theory.
 http://dx.doi.org/10.1002/9781118670712.ch8


 Borstnik, U; VandeVondele, J; Weber, V; Hutter, J. 
 PARALLEL COMPUTING, 40 (5-6), 47-58 (2014). 
 Sparse matrix multiplication: The distributed block-compressed sparse
 row library.
 http://dx.doi.org/10.1016/j.parco.2014.03.012


 Hutter, J; Iannuzzi, M; Schiffmann, F; VandeVondele, J. 
 WILEY INTERDISCIPLINARY REVIEWS-COMPUTATIONAL MOLECULAR SCIENCE, 4 (1), 15-25 (2014). 
 CP2K: atomistic simulations of condensed matter systems.
 http://dx.doi.org/10.1002/wcms.1159


 Guidon, M; Hutter, J; VandeVondele, J. 
 JOURNAL OF CHEMICAL THEORY AND COMPUTATION, 5 (11), 3010-3021 (2009). 
 Robust Periodic Hartree-Fock Exchange for Large-Scale Simulations Using
 Gaussian Basis Sets.
 http://dx.doi.org/10.1021/ct900494g


 Guidon, M; Schiffmann, F; Hutter, J; VandeVondele, J. 
 JOURNAL OF CHEMICAL PHYSICS, 128 (21), 214104 (2008). 
 Ab initio molecular dynamics using hybrid density functionals.
 http://dx.doi.org/10.1063/1.2931945


 VandeVondele, J; Hutter, J. 
 JOURNAL OF CHEMICAL PHYSICS, 127 (11), 114105 (2007). 
 Gaussian basis sets for accurate calculations on molecular systems in
 gas and condensed phases.
 http://dx.doi.org/10.1063/1.2770708


 Genovese, L; Deutsch, T; Goedecker, S. 
 JOURNAL OF CHEMICAL PHYSICS, 127 (5), 054704 (2007). 
 Efficient and accurate three-dimensional Poisson solver for surface
 problems.
 http://dx.doi.org/10.1063/1.2754685


 Genovese, L; Deutsch, T; Neelov, A; Goedecker, S; Beylkin, G. 
 JOURNAL OF CHEMICAL PHYSICS, 125 (7), 074105 (2006). 
 Efficient solution of Poisson's equation with free boundary conditions.
 http://dx.doi.org/10.1063/1.2335442


 Krack, M. 
 THEORETICAL CHEMISTRY ACCOUNTS, 114 (1-3), 145-152 (2005). 
 Pseudopotentials for H to Kr optimized for gradient-corrected
 exchange-correlation functionals.
 http://dx.doi.org/10.1007/s00214-005-0655-y


 VandeVondele, J; Krack, M; Mohamed, F; Parrinello, M; Chassaing, T;
 Hutter, J. COMPUTER PHYSICS COMMUNICATIONS, 167 (2), 103-128 (2005). 
 QUICKSTEP: Fast and accurate density functional calculations using a
 mixed Gaussian and plane waves approach.
 http://dx.doi.org/10.1016/j.cpc.2004.12.014


 Frigo, M; Johnson, SG. 
 PROCEEDINGS OF THE IEEE, 93 (2), 216-231 (2005). 
 The design and implementation of FFTW3.
 http://dx.doi.org/10.1109/JPROC.2004.840301


 Hartwigsen, C; Goedecker, S; Hutter, J. 
 PHYSICAL REVIEW B, 58 (7), 3641-3662 (1998). 
 Relativistic separable dual-space Gaussian pseudopotentials from H to Rn.
 http://dx.doi.org/10.1103/PhysRevB.58.3641


 Lippert, G; Hutter, J; Parrinello, M. 
 MOLECULAR PHYSICS, 92 (3), 477-487 (1997). 
 A hybrid Gaussian and plane wave density functional scheme.
 http://dx.doi.org/10.1080/002689797170220


 Goedecker, S; Teter, M; Hutter, J. 
 PHYSICAL REVIEW B, 54 (3), 1703-1710 (1996). 
 Separable dual-space Gaussian pseudopotentials.
 http://dx.doi.org/10.1103/PhysRevB.54.1703


 -------------------------------------------------------------------------------
 -                                                                             -
 -                                T I M I N G                                  -
 -                                                                             -
 -------------------------------------------------------------------------------
 SUBROUTINE                       CALLS  ASD         SELF TIME        TOTAL TIME
                                MAXIMUM       AVERAGE  MAXIMUM  AVERAGE  MAXIMUM
 CP2K                                 1  1.0    0.098    0.114   74.343   74.344
 qs_energies                          2  2.0    0.003    0.003   65.527   65.531
 scf_env_do_scf                       2  3.0    0.000    0.000   63.305   63.307
 scf_env_do_scf_inner_loop           12  4.0    0.001    0.001   63.302   63.304
 qs_ks_update_qs_env                 16  4.2    0.000    0.001   60.481   60.502
 rebuild_ks_matrix                   16  5.2    0.000    0.000   60.480   60.501
 qs_ks_build_kohn_sham_matrix        16  6.2    0.006    0.007   60.480   60.501
 hfx_ks_matrix                       16  7.2    0.000    0.000   41.572   41.809
 integrate_four_center               16  8.2    0.023    0.031   41.571   41.808
 calc_screening_functions             2 10.0   19.633   20.053   19.905   20.334
 mp_sync                            183 10.0   12.303   17.754   12.303   17.754
 pw_transfer                        338  8.4    0.018    0.023   16.920   17.610
 fft_wrap_pw1pw2                    338  9.4    0.003    0.005   16.901   17.589
 integrate_four_center_main          16  9.2    0.001    0.002    5.240   17.454
 integrate_four_center_bin         2048 10.2    5.239   17.453    5.239   17.453
 fft_wrap_pw1pw2_140                158 10.0    1.269    1.582   15.684   16.777
 fft3d_ps                           338 11.4    7.250    8.235   13.131   13.568
 pw_poisson_solve                    24  6.5    0.420    0.506   12.250   12.285
 qs_rho_update_rho                   18  4.3    0.000    0.000   11.964   11.964
 calculate_rho_elec                  36  5.3    0.165    0.245   11.964   11.964
 density_rs2pw                       36  6.3    0.002    0.003   11.103   11.332
 mp_alltoall_z22v                   338 13.4    2.579    6.680    2.579    6.680
 rs_pw_transfer                     248  8.7    0.004    0.005    5.377    5.620
 sum_up_and_integrate                12  8.0    0.000    0.000    4.998    5.019
 integrate_v_rspace                  24  9.0    0.022    0.074    4.997    5.019
 potential_pw2rs                     24 10.0    0.005    0.007    4.969    4.983
 yz_to_x                            194 11.8    1.526    1.983    3.110    4.863
 ps_wavelet_solve                    24  7.5    3.497    3.796    4.320    4.349
 calc_pair_dist_radii                 2 10.0    3.438    3.523    3.558    3.644
 mp_waitany                        2560 10.7    1.446    3.228    1.446    3.228
 x_to_yz                            144 13.2    1.767    2.195    2.762    3.056
 rs_pw_transfer_RS2PW_140            40  8.2    1.535    1.873    2.379    2.715
 mp_sum_l                           202  8.4    0.534    2.063    0.534    2.063
 integrate_four_center_load          16  9.2    0.000    0.000    0.524    2.034
 hfx_load_balance                     2 11.0    0.000    0.000    0.524    2.034
 hfx_load_balance_range               2 12.0    0.000    0.000    0.523    2.033
 pw_poisson_rebuild                  24  7.5    0.000    0.000    1.917    1.951
 ps_wavelet_create                    2 10.0    0.000    0.000    1.917    1.951
 RS_z_slice_distribution              2 11.0    1.720    1.915    1.917    1.951
 rs_pw_transfer_PW2RS_140            28 11.4    1.043    1.264    1.651    1.829
 mp_alltoall_d54                     24  8.5    0.327    1.706    0.327    1.706
 pw_gather_p                        194 10.8    1.400    1.672    1.400    1.672
 mp_sum_d                           647  3.6    0.514    1.616    0.514    1.616
 fft_wrap_pw1pw2_50                  60 10.8    0.056    0.074    1.031    1.491
 -------------------------------------------------------------------------------

 The number of warnings for this run is : 0
 
 -------------------------------------------------------------------------------
  **** **** ******  **  PROGRAM ENDED AT                 2019-07-25 12:55:37.798
 ***** ** ***  *** **   PROGRAM RAN ON            cpn-u28-40.cbls.ccr.buffalo.ed
 **    ****   ******    PROGRAM RAN BY                                  pavankum
 ***** **    ** ** **   PROGRAM PROCESS ID                                 32907
  **** **  *******  **  PROGRAM STOPPED IN /projects/academic/mdupuis2/pavan/VAB
                                           _calculation/results_for_paper/2.Zn2+
                                           /gpw_pseudo/r_5
