      77
 i =       11, E =     -1335.5308144013
 Fe        18.3385156518        0.0000064818        0.0000014098
 Fe        15.2678574535       -0.0004140918       -0.0001008246
 Fe        12.1833670582        0.0001624437       -0.0001054554
 Fe         9.1696054086        0.0228217194        0.0002807957
 Fe         6.1561913962        0.0001411817        0.0000126313
 Fe         3.0717164197       -0.0004354115       -0.0003990483
 Fe         0.0006461435        0.0000033491        0.0000034244
  O        18.3402304357       -0.0333364393        2.1139313497
  O        18.3392076691        0.0333111898       -2.1138649999
  O        19.8610508709       -1.2624276009       -0.0271596436
  O        19.8610871529        1.2623080898        0.0270681138
  O        15.3210791993       -0.0287950247        2.1575301408
  O        15.3208553888        0.0286093075       -2.1574092598
  O        16.8178017833       -1.2577292114       -0.0272116861
  O        16.8181301440        1.2572510610        0.0274478000
  O        12.2833726244        0.0326321914        2.1709401685
  O        12.2828940459       -0.0333068233       -2.1710679016
  O        13.7830968087       -1.2565163311        0.0208292914
  O        13.7870479454        1.2565435122       -0.0218574747
  O         9.1707376699        0.0376805920        2.2298469363
  O         9.1707219556        0.0274517109       -2.2307362802
  O        10.7974010455       -1.3002548687        0.0293589735
  O        10.8208965683        1.3239881324       -0.0287750612
  O         6.0570882239        0.0326672942        2.1702936807
  O         6.0576121616       -0.0333038540       -2.1703389965
  O         7.5421040458       -1.3002055581        0.0293644596
  O         7.5195102666        1.3238699574       -0.0287557653
  O         3.0168379380       -0.0290076891        2.1546903060
  O         3.0170042573        0.0286033676       -2.1553889184
  O         4.5561506287       -1.2566431634        0.0205315705
  O         4.5522173078        1.2565795663       -0.0219396797
  O        -0.0198313986       -0.0336540316        2.1144379709
  O        -0.0198108496        0.0335515683       -2.1144809976
  O         1.5198635655       -1.2572406076       -0.0275157519
  O         1.5196175551        1.2567341119        0.0273607772
  H        18.2561145784       -0.7739966214       -2.6831704595
  H        18.2209620530        0.8513847297       -2.6615048178
  H        18.2252311709       -0.8515131528        2.6621735063
  H        18.2529391237        0.7740326275        2.6825479741
  H        19.8607721989       -2.2512570835       -0.0308633649
  H        19.8607988336        2.2511406147        0.0305229315
  H        15.1676983433       -0.7840057263       -2.7060534365
  H        15.0438022282        0.8328275107       -2.6678217775
  H        15.0548756173       -0.8351512911        2.6704429904
  H        15.1590320896        0.7831356817        2.7045863261
  H        16.8075966490       -2.2465713675       -0.0271987588
  H        16.8072627797        2.2460785553        0.0270608284
  H        12.1114335904       -0.8589423403       -2.6936996425
  H        12.0359975823        0.7653852675       -2.7042060719
  H        12.0516360827       -0.7681852800        2.7081586685
  H        12.0981492114        0.8572762578        2.6904952086
  H        13.7572462043       -2.2444386378        0.0171696917
  H        13.7607387038        2.2443588048       -0.0166681632
  H         9.1678168357       -0.7810542676       -2.8048430682
  H         9.1679749833        0.8468593378       -2.7895513855
  H         9.1677438624       -0.7778217101        2.7935058257
  H         9.1674875768        0.8501492137        2.7983772978
  H        10.7800806322       -2.2870898757        0.0331517532
  H        10.8180709575        2.3110686376       -0.0343036615
  H         6.2229436380       -0.8589703337       -2.6949092252
  H         6.2982964071        0.7658419758       -2.7056491462
  H         6.2820956526       -0.7684939921        2.7094766635
  H         6.2354162181        0.8573168241        2.6918686142
  H         7.5588973474       -2.2870323788        0.0330731059
  H         7.5215253222        2.3108399601       -0.0342196096
  H         3.1575039895       -0.7836469874       -2.7076575061
  H         3.2812704903        0.8339282865       -2.6704962699
  H         3.2703568555       -0.8362891874        2.6721342974
  H         3.1655326766        0.7827365767        2.7054944088
  H         4.5818292181       -2.2445828878        0.0166055196
  H         4.5781847340        2.2444442989       -0.0175887290
  H         0.0425432463       -0.7740377797       -2.6860241922
  H         0.0793567034        0.8517462914       -2.6657043078
  H         0.0763032986       -0.8517782940        2.6662706025
  H         0.0442240533        0.7741340759        2.6855080942
  H         1.5295366363       -2.2460444615       -0.0277974510
  H         1.5299645112        2.2455229981        0.0272334555
