      77
 i =        1, E =     -1335.6043040407
 Fe        18.3365788051        0.0000029798        0.0000065453
 Fe        15.2666504234       -0.0000058369        0.0001877458
 Fe        12.1891071973       -0.0000363644       -0.0003395788
 Fe         9.1680344266        0.0000062216        0.0000038695
 Fe         6.1452192264        0.0000418425        0.0003577047
 Fe         3.0683928375        0.0000048667       -0.0001482418
 Fe        -0.0070053305        0.0000143091       -0.0000818852
  O        18.3325328080       -0.0000076286        2.1268968352
  O        18.3323950730        0.0000176709       -2.1268698275
  O        19.8604605734       -1.2378552531       -0.0000167636
  O        19.8604692657        1.2378510832       -0.0000122381
  O        15.2930122485       -0.0003352417        2.1329482478
  O        15.2929506099        0.0003619803       -2.1326969800
  O        16.8173381531       -1.2380178092       -0.0000173737
  O        16.8173333918        1.2380336354        0.0002711992
  O        12.2730412461        0.0018739946        2.1478327128
  O        12.2739545227       -0.0020145960       -2.1486053148
  O        13.7835107953       -1.2353405509       -0.0003149435
  O        13.7835069611        1.2352856960        0.0003706432
  O         9.1685348759       -0.0028491473        2.2745263324
  O         9.1679576495        0.0028626816       -2.2745162163
  O        10.8185721296       -1.3007685742        0.0049455483
  O        10.8186210467        1.3006452889       -0.0061590739
  O         6.0612574622        0.0016813301        2.1510817548
  O         6.0619812998       -0.0015724939       -2.1501698019
  O         7.5175261533       -1.3016782654        0.0063715272
  O         7.5175673143        1.3018345281       -0.0051231909
  O         3.0408433609       -0.0004107158        2.1327541454
  O         3.0407757515        0.0003859947       -2.1329712461
  O         4.5525543968       -1.2357280818       -0.0004532365
  O         4.5525410540        1.2357860497        0.0003370463
  O         0.0011285276       -0.0000313212        2.1271051085
  O         0.0009901008        0.0000135338       -2.1270923312
  O         1.5186318689       -1.2380218058       -0.0003238266
  O         1.5186259297        1.2380032327        0.0000148527
  H        18.2823514416       -0.8051068369       -2.6956167751
  H        18.2820560877        0.8051486903       -2.6955766129
  H        18.2823318997       -0.8051534402        2.6955994198
  H        18.2825520352        0.8051197159        2.6956467468
  H        19.8600878812       -2.2352005645        0.0000152810
  H        19.8601116890        2.2351962859       -0.0000100733
  H        15.1528617835       -0.8042786537       -2.6892183178
  H        15.1512936762        0.8046983948       -2.6891855405
  H        15.1515963441       -0.8046649479        2.6896311903
  H        15.1530955376        0.8042888426        2.6896553686
  H        16.8005914496       -2.2350857131       -0.0000056668
  H        16.8005925168        2.2351035010        0.0000988152
  H        12.0948542436       -0.8075954698       -2.6978586160
  H        12.0855548371        0.8049572720       -2.6947830524
  H        12.0848328314       -0.8049721278        2.6939977425
  H        12.0940410223        0.8075654337        2.6968908933
  H        13.7387635499       -2.2303360416        0.0014644195
  H        13.7386459378        2.2302706751       -0.0008120074
  H         9.1670084772       -0.8050770578       -2.8420155416
  H         9.1669701466        0.8088223512       -2.8449612005
  H         9.1668480559       -0.8088194392        2.8449601724
  H         9.1667155654        0.8050834564        2.8420355622
  H        10.7820455818       -2.2954958981       -0.0034703643
  H        10.7821786681        2.2954221789        0.0015384607
  H         6.2391614736       -0.8075258365       -2.6974338787
  H         6.2483957231        0.8050530718       -2.6945321598
  H         6.2476561861       -0.8050622709        2.6952774904
  H         6.2383833502        0.8075533151        2.6984018605
  H         7.5534595336       -2.2953618743       -0.0015504109
  H         7.5535684980        2.2954424370        0.0034798298
  H         3.1797255497       -0.8042245024       -2.6900233192
  H         3.1810147948        0.8047323422       -2.6899937451
  H         3.1812804554       -0.8048180723        2.6895326951
  H         3.1800063128        0.8042599281        2.6895652043
  H         4.5967773154       -2.2302285668        0.0007573229
  H         4.5966496319        2.2302985160       -0.0014147602
  H         0.0500383222       -0.8050878235       -2.6957626114
  H         0.0499288921        0.8051503530       -2.6957182127
  H         0.0501797682       -0.8052089664        2.6956846128
  H         0.0502651611        0.8051266840        2.6957145673
  H         1.5346782851       -2.2350883787       -0.0001256209
  H         1.5346742453        2.2350674014        0.0000392953
      77
 i =        2, E =     -1335.6077983718
 Fe        18.3574092216       -0.0000170420       -0.0000286870
 Fe        15.2619293678       -0.0000054111        0.0001880275
 Fe        12.1763833771       -0.0000364517       -0.0000531426
 Fe         9.1684875014        0.0000133217        0.0000071377
 Fe         6.1490151065        0.0000706256        0.0003395868
 Fe         3.0725155401        0.0000026080       -0.0001655240
 Fe         0.0286326034       -0.0000438683        0.0001834752
  O        18.3258902950       -0.0000219115        2.1358050205
  O        18.3255926648        0.0000474968       -2.1356762390
  O        19.8613758950       -1.2324965866       -0.0000220428
  O        19.8613786517        1.2324968663       -0.0000147427
  O        15.2930325487       -0.0005951514        2.1385205830
  O        15.2929134539        0.0006519364       -2.1384499447
  O        16.8200188905       -1.2305923393       -0.0000262185
  O        16.8200201950        1.2306099038        0.0003188160
  O        12.2766681302        0.0013556101        2.1451302037
  O        12.2774498970       -0.0014065793       -2.1456354363
  O        13.7789128021       -1.2279716705       -0.0003536629
  O        13.7789019342        1.2278990059        0.0004276098
  O         9.1696014506       -0.0030344228        2.2649797311
  O         9.1693470702        0.0030549776       -2.2649998689
  O        10.8112855855       -1.2869859275        0.0060231172
  O        10.8115410212        1.2870044127       -0.0075833665
  O         6.0579885839        0.0013509642        2.1451782657
  O         6.0586045127       -0.0012793958       -2.1446138287
  O         7.5267140473       -1.2844032649        0.0089574324
  O         7.5271179643        1.2843051180       -0.0071833866
  O         3.0369829585       -0.0007531584        2.1395453694
  O         3.0369149572        0.0006980986       -2.1395848717
  O         4.5607966511       -1.2272776156       -0.0005939530
  O         4.5607910916        1.2273648745        0.0004526595
  O         0.0009068700       -0.0000908188        2.1385474686
  O         0.0006821234        0.0000421718       -2.1385964166
  O         1.5185510574       -1.2301624395       -0.0003805121
  O         1.5185512485        1.2301457211        0.0000282747
  H        18.2816491293       -0.8119748612       -2.6974133159
  H        18.2813440902        0.8120216198       -2.6973765358
  H        18.2816237068       -0.8120214207        2.6973997752
  H        18.2818517819        0.8119843949        2.6974444626
  H        19.8601162084       -2.2269997114        0.0000156591
  H        19.8601378289        2.2269959409       -0.0000104644
  H        15.1516033740       -0.8102546265       -2.6900166907
  H        15.1499882384        0.8107251850       -2.6900071051
  H        15.1503055295       -0.8106569214        2.6904020629
  H        15.1518512460        0.8102323953        2.6904036663
  H        16.8008522595       -2.2269414959       -0.0000045881
  H        16.8008521557        2.2269571240        0.0001008126
  H        12.0945364923       -0.8115477519       -2.6965205911
  H        12.0853269090        0.8078977784       -2.6927698886
  H        12.0845704734       -0.8080131696        2.6920652898
  H        12.0937096698        0.8115198194        2.6955798053
  H        13.7395444450       -2.2224060213        0.0014598907
  H        13.7394356062        2.2223476503       -0.0008205703
  H         9.1669832541       -0.8110972988       -2.8444244763
  H         9.1669408588        0.8148922311       -2.8470522470
  H         9.1668169547       -0.8148858183        2.8470495653
  H         9.1666867648        0.8111021808        2.8444437536
  H        10.7832241997       -2.2862003169       -0.0031951628
  H        10.7833513376        2.2860864810        0.0012828794
  H         6.2397087103       -0.8121052072       -2.6969160739
  H         6.2489642291        0.8090647765       -2.6936033835
  H         6.2482244465       -0.8090631100        2.6943646823
  H         6.2389385211        0.8121669035        2.6979193315
  H         7.5522966014       -2.2871737237       -0.0013007041
  H         7.5524011404        2.2873230501        0.0032118270
  H         3.1809132241       -0.8101312897       -2.6907127496
  H         3.1822477708        0.8106970897       -2.6907105693
  H         3.1825242938       -0.8107940502        2.6903079847
  H         3.1812057172        0.8101751490        2.6903124068
  H         4.5960329007       -2.2227975645        0.0007670686
  H         4.5959140570        2.2228590194       -0.0014147736
  H         0.0507668464       -0.8120245359       -2.6976456210
  H         0.0506602146        0.8120914229       -2.6976058091
  H         0.0509142184       -0.8121236788        2.6975752915
  H         0.0509959264        0.8120332052        2.6976009918
  H         1.5344475736       -2.2269650605       -0.0001284411
  H         1.5344438933        2.2269471267        0.0000368421
      77
 i =        3, E =     -1335.6115384359
 Fe        18.3468788560       -0.0000070709       -0.0000418217
 Fe        15.2608926707        0.0000019862        0.0001523399
 Fe        12.1899821548        0.0003260424        0.0005659639
 Fe         9.1689024709        0.0000214950        0.0000089931
 Fe         6.1613066543        0.0000540824        0.0002254659
 Fe         3.0860803379        0.0000002375       -0.0001949322
 Fe         0.0412606372       -0.0000628332        0.0003165309
  O        18.3185645346       -0.0000238776        2.1384099228
  O        18.3180407950        0.0000387622       -2.1382492527
  O        19.8705419446       -1.2218385115       -0.0000165771
  O        19.8705414835        1.2218177413        0.0000028887
  O        15.2929105223       -0.0006685522        2.1456686180
  O        15.2927734889        0.0007228244       -2.1455133984
  O        16.8233510261       -1.2183235901       -0.0000564577
  O        16.8233568114        1.2183308836        0.0004251138
  O        12.2793303264        0.0021999357        2.1502528038
  O        12.2797218952       -0.0023373285       -2.1504970995
  O        13.7726250665       -1.2183175576       -0.0004038645
  O        13.7726241969        1.2182499863        0.0005646475
  O         9.1708833749       -0.0030534215        2.2656818533
  O         9.1710719611        0.0030723526       -2.2656978688
  O        10.8023096157       -1.2797289419        0.0065064653
  O        10.8026461202        1.2797452644       -0.0083456596
  O         6.0564333995        0.0020278920        2.1498326596
  O         6.0566800498       -0.0019084057       -2.1494558490
  O         7.5342222901       -1.2777504293        0.0104274962
  O         7.5347786935        1.2777523066       -0.0082290302
  O         3.0289135585       -0.0007786043        2.1449956660
  O         3.0289001860        0.0007304146       -2.1451247966
  O         4.5652496723       -1.2177487425       -0.0007921659
  O         4.5652718267        1.2178315968        0.0006168664
  O         0.0006632067       -0.0000834974        2.1408003547
  O         0.0002758444        0.0000372073       -2.1408011210
  O         1.5241696941       -1.2230696976       -0.0004837896
  O         1.5241706789        1.2230390805        0.0000935902
  H        18.2799465902       -0.8198241345       -2.7006849237
  H        18.2796205080        0.8199325523       -2.7006855430
  H        18.2799012099       -0.8199526040        2.7007510043
  H        18.2801464308        0.8198864389        2.7007740458
  H        19.8601146013       -2.2118395392        0.0000134762
  H        19.8601336426        2.2118399280       -0.0000154605
  H        15.1497839246       -0.8156988950       -2.6901253650
  H        15.1480011156        0.8167367908       -2.6904536576
  H        15.1483684425       -0.8165479279        2.6906764107
  H        15.1500713145        0.8156144687        2.6903737185
  H        16.8017115134       -2.2091444458       -0.0000014931
  H        16.8017114039        2.2091601491        0.0001031286
  H        12.0957147305       -0.8117608656       -2.6895254488
  H        12.0862035577        0.8084030015       -2.6859338784
  H        12.0854059563       -0.8085966188        2.6853736533
  H        12.0948249268        0.8118919560        2.6887980194
  H        13.7410273665       -2.2051321710        0.0014516640
  H        13.7409323455        2.2050562358       -0.0008497198
  H         9.1671274277       -0.8096099159       -2.8392351399
  H         9.1670610337        0.8140154429       -2.8414588502
  H         9.1669266077       -0.8139889056        2.8414353500
  H         9.1668190403        0.8096085172        2.8392409449
  H        10.7850926880       -2.2595840169       -0.0025187264
  H        10.7852181002        2.2596010041        0.0006287095
  H         6.2388847653       -0.8117993998       -2.6898615475
  H         6.2484075772        0.8088517704       -2.6865016860
  H         6.2476401254       -0.8087411028        2.6871507618
  H         6.2380765614        0.8117210245        2.6907217839
  H         7.5505879084       -2.2573974282       -0.0005536099
  H         7.5507049678        2.2573129075        0.0024423920
  H         3.1828038066       -0.8156884929       -2.6910079364
  H         3.1843066627        0.8168600963       -2.6913695113
  H         3.1846272678       -0.8170468860        2.6911522299
  H         3.1831297522        0.8157632796        2.6907584064
  H         4.5950825376       -2.2049937914        0.0007924313
  H         4.5949748096        2.2050882021       -0.0014170361
  H         0.0517215477       -0.8210181547       -2.7025484204
  H         0.0516251548        0.8211420494       -2.7025442022
  H         0.0518835930       -0.8211556733        2.7025255831
  H         0.0519492410        0.8209481512        2.7024744816
  H         1.5339029930       -2.2086883424       -0.0001380301
  H         1.5338956257        2.2086735940        0.0000266755
      77
 i =        4, E =     -1335.6123662640
 Fe        18.3376714947        0.0000027312       -0.0000027387
 Fe        15.2615670019       -0.0000046163        0.0001388500
 Fe        12.1890008518        0.0002789033        0.0005138789
 Fe         9.1696516463        0.0000210643        0.0000062142
 Fe         6.1666943323       -0.0000449466       -0.0002110399
 Fe         3.0883146367        0.0000008444       -0.0002019292
 Fe         0.0391500704       -0.0000597300        0.0003175455
  O        18.3171422758       -0.0000283299        2.1384554582
  O        18.3165951349        0.0000464827       -2.1382793783
  O        19.8717835257       -1.2181931277       -0.0000121241
  O        19.8717843263        1.2181715123        0.0000105745
  O        15.2929717168       -0.0007283846        2.1453501619
  O        15.2928246878        0.0007909385       -2.1452151061
  O        16.8231400964       -1.2152005559       -0.0000648703
  O        16.8231456021        1.2152084015        0.0004503606
  O        12.2802049725        0.0022387433        2.1499535976
  O        12.2805321590       -0.0023642939       -2.1501500616
  O        13.7725718644       -1.2153422329       -0.0003971592
  O        13.7725704464        1.2152945808        0.0005988275
  O         9.1708718391       -0.0030644870        2.2660181568
  O         9.1710683489        0.0030866748       -2.2660329043
  O        10.8020088867       -1.2749091777        0.0065242805
  O        10.8023170393        1.2749656302       -0.0083633860
  O         6.0559714403        0.0020635787        2.1496826776
  O         6.0561577421       -0.0019436757       -2.1493257104
  O         7.5347323719       -1.2736448586        0.0105252980
  O         7.5352643218        1.2736281537       -0.0082909706
  O         3.0270241211       -0.0008544571        2.1450672699
  O         3.0270192034        0.0008001211       -2.1451826557
  O         4.5654386319       -1.2148585089       -0.0008272768
  O         4.5654638615        1.2149395990        0.0006434583
  O         0.0007704392       -0.0001007599        2.1414427200
  O         0.0003363678        0.0000455659       -2.1414479219
  O         1.5257714817       -1.2198447589       -0.0005063215
  O         1.5257719262        1.2198131064        0.0001141176
  H        18.2795752764       -0.8199996873       -2.7009320370
  H        18.2792451676        0.8201110456       -2.7009336970
  H        18.2795258938       -0.8201341974        2.7010104281
  H        18.2797749299        0.8200652595        2.7010309287
  H        19.8602555057       -2.2090349364        0.0000123581
  H        19.8602744653        2.2090308347       -0.0000169718
  H        15.1493450503       -0.8161521937       -2.6902861516
  H        15.1475345949        0.8172634462       -2.6906509198
  H        15.1479084007       -0.8170821857        2.6908564078
  H        15.1496391353        0.8160797125        2.6905202554
  H        16.8019925563       -2.2056801321       -0.0000010352
  H        16.8019932861        2.2056938314        0.0001041588
  H        12.0957718150       -0.8122214375       -2.6884693807
  H        12.0862223164        0.8087261712       -2.6847845675
  H        12.0854191093       -0.8089316184        2.6842625435
  H        12.0948767302        0.8123560460        2.6877872568
  H        13.7412310420       -2.2023910843        0.0014494967
  H        13.7411431353        2.2023151792       -0.0008598620
  H         9.1672009205       -0.8089771444       -2.8378647697
  H         9.1671243158        0.8135361103       -2.8399695299
  H         9.1669816615       -0.8135097709        2.8399431577
  H         9.1668824062        0.8089762742        2.8378686838
  H        10.7853006841       -2.2567071558       -0.0023741907
  H        10.7854217557        2.2567448396        0.0004830328
  H         6.2388542230       -0.8120594477       -2.6887291408
  H         6.2484267834        0.8089974163       -2.6852618117
  H         6.2476552206       -0.8088677486        2.6858765869
  H         6.2380416188        0.8119678917        2.6895571708
  H         7.5505064681       -2.2540721278       -0.0003846307
  H         7.5506290142        2.2539761070        0.0022721506
  H         3.1831607130       -0.8158762815       -2.6909060694
  H         3.1846871579        0.8171111138       -2.6912971291
  H         3.1850112900       -0.8172863672        2.6910986991
  H         3.1834894635        0.8159357234        2.6906742595
  H         4.5949918837       -2.2021155636        0.0008005624
  H         4.5948863159        2.2022136122       -0.0014191318
  H         0.0518743824       -0.8211477624       -2.7029852340
  H         0.0517801381        0.8212749862       -2.7029823087
  H         0.0520399638       -0.8212930897        2.7029722608
  H         0.0521027699        0.8210776496        2.7029162517
  H         1.5338607230       -2.2063570221       -0.0001412819
  H         1.5338519216        2.2063388005        0.0000241233
      77
 i =        5, E =     -1335.6137199117
 Fe        18.3361246864        0.0000083365        0.0000650676
 Fe        15.2633888672       -0.0000243661        0.0001074279
 Fe        12.1812453695        0.0000105007        0.0001204513
 Fe         9.1722837710        0.0000221697        0.0000057704
 Fe         6.1587258162        0.0000119302       -0.0000055496
 Fe         3.0909006034        0.0000075272       -0.0002070743
 Fe         0.0290318107       -0.0000448242        0.0002826219
  O        18.3143445496       -0.0000418537        2.1378313289
  O        18.3137954490        0.0000728381       -2.1376127958
  O        19.8725819865       -1.2096507623        0.0000023726
  O        19.8725883371        1.2096330092        0.0000329144
  O        15.2931634580       -0.0009157440        2.1425814498
  O        15.2929844202        0.0010046422       -2.1425307457
  O        16.8211125055       -1.2091348137       -0.0000851562
  O        16.8211161170        1.2091463260        0.0005031308
  O        12.2823541402        0.0021375379        2.1473633298
  O        12.2825842608       -0.0022065229       -2.1474766456
  O        13.7742795189       -1.2087314819       -0.0003585864
  O        13.7742754859        1.2087337176        0.0006678234
  O         9.1704727720       -0.0031130989        2.2661098708
  O         9.1705525604        0.0031439042       -2.2661250288
  O        10.8034678823       -1.2621584328        0.0064233900
  O        10.8036645469        1.2623154692       -0.0081817122
  O         6.0549145214        0.0020060251        2.1474492712
  O         6.0550249116       -0.0019030646       -2.1471416440
  O         7.5348411383       -1.2627687790        0.0104027411
  O         7.5352380253        1.2626550324       -0.0082052185
  O         3.0230822765       -0.0010939254        2.1438777982
  O         3.0230941114        0.0010176411       -2.1439281502
  O         4.5652864192       -1.2084543321       -0.0008969119
  O         4.5653110553        1.2085223898        0.0006676255
  O         0.0011319212       -0.0001575899        2.1428540313
  O         0.0005836703        0.0000734473       -2.1428855900
  O         1.5292402144       -1.2116903849       -0.0005526666
  O         1.5292389222        1.2116592122        0.0001645043
  H        18.2788647316       -0.8181427320       -2.7007593973
  H        18.2785267717        0.8182493186       -2.7007559950
  H        18.2788073000       -0.8182754860        2.7008584593
  H        18.2790643580        0.8182043481        2.7008759633
  H        19.8607966364       -2.2035312146        0.0000091643
  H        19.8608162563        2.2035122386       -0.0000206245
  H        15.1484145188       -0.8157973130       -2.6906495074
  H        15.1465577119        0.8170012622       -2.6910428268
  H        15.1469384902       -0.8168762265        2.6912373275
  H        15.1487185271        0.8157820720        2.6908741727
  H        16.8026887003       -2.1992408483       -0.0000003483
  H        16.8026916110        2.1992488036        0.0001073557
  H        12.0956097534       -0.8136709840       -2.6869841304
  H        12.0860120603        0.8096426608       -2.6829502435
  H        12.0852040779       -0.8098543771        2.6825111214
  H        12.0947155488        0.8137678322        2.6863914984
  H        13.7414937541       -2.1980626292        0.0014446627
  H        13.7414247320        2.1980015301       -0.0008846333
  H         9.1674025255       -0.8077602943       -2.8351591005
  H         9.1672975409        0.8126521269       -2.8369665184
  H         9.1671265769       -0.8126310570        2.8369366276
  H         9.1670494016        0.8077640881        2.8351606615
  H        10.7854469403       -2.2538802720       -0.0020678155
  H        10.7855545457        2.2539591575        0.0001676789
  H         6.2389996379       -0.8131170512       -2.6871126913
  H         6.2486708368        0.8096553003       -2.6833035884
  H         6.2478992969       -0.8095030894        2.6838411988
  H         6.2381891030        0.8130324052        2.6878747271
  H         7.5507621338       -2.2512319898       -0.0000158020
  H         7.5508965438        2.2511629524        0.0019118750
  H         3.1837637166       -0.8146721073       -2.6903548027
  H         3.1853234187        0.8159573923       -2.6907458141
  H         3.1856492672       -0.8160693455        2.6905572618
  H         3.1840950911        0.8146709483        2.6901374540
  H         4.5949391869       -2.1975540937        0.0008230423
  H         4.5948402374        2.1976510876       -0.0014222772
  H         0.0521525965       -0.8188344164       -2.7030122407
  H         0.0520629896        0.8189597306       -2.7030056120
  H         0.0523272314       -0.8189987617        2.7030208998
  H         0.0523846225        0.8187842033        2.7029667740
  H         1.5339113163       -2.2033976274       -0.0001494044
  H         1.5338991695        2.2033677000        0.0000190248
      77
 i =        6, E =     -1335.6140774175
 Fe        18.3403862708        0.0000018979        0.0000149192
 Fe        15.2635455697       -0.0000246158        0.0001027673
 Fe        12.1765628514       -0.0000547238       -0.0001098681
 Fe         9.1726544049        0.0000250752        0.0000083218
 Fe         6.1610758838        0.0000163000        0.0000657137
 Fe         3.0903429736        0.0000086848       -0.0002076521
 Fe         0.0260916193       -0.0000402134        0.0002649236
  O        18.3137189109       -0.0000446004        2.1372692587
  O        18.3131859992        0.0000769510       -2.1370403813
  O        19.8722917585       -1.2083214096        0.0000078432
  O        19.8723001352        1.2083039263        0.0000413171
  O        15.2931620236       -0.0009730302        2.1420566826
  O        15.2929707865        0.0010665607       -2.1420147055
  O        16.8204514043       -1.2080610334       -0.0000928831
  O        16.8204547155        1.2080712916        0.0005168849
  O        12.2828342328        0.0021515144        2.1466162552
  O        12.2830474829       -0.0022171485       -2.1467188859
  O        13.7749485500       -1.2076427204       -0.0003455375
  O        13.7749449014        1.2076431564        0.0006798275
  O         9.1703539518       -0.0031397222        2.2655433854
  O         9.1703833564        0.0031709972       -2.2655589563
  O        10.8039303890       -1.2607764285        0.0063722856
  O        10.8040929297        1.2609263970       -0.0081027998
  O         6.0546021152        0.0020339065        2.1466889376
  O         6.0547072408       -0.0019321383       -2.1463962952
  O         7.5347064516       -1.2611123335        0.0103135844
  O         7.5350505451        1.2609978450       -0.0081447198
  O         3.0220595082       -0.0011409228        2.1433479127
  O         3.0220751693        0.0010615358       -2.1433890368
  O         4.5651622999       -1.2075435277       -0.0009099385
  O         4.5651850902        1.2076096158        0.0006668058
  O         0.0011381162       -0.0001686963        2.1427140789
  O         0.0005504138        0.0000789365       -2.1427479217
  O         1.5299279203       -1.2102531637       -0.0005646147
  O         1.5299263272        1.2102226916        0.0001809843
  H        18.2786591710       -0.8172401751       -2.7006117038
  H        18.2783185646        0.8173491909       -2.7006092918
  H        18.2785987419       -0.8173745197        2.7007198322
  H        18.2788582593        0.8173012070        2.7007354822
  H        19.8610196345       -2.2015847973        0.0000081158
  H        19.8610395084        2.2015631362       -0.0000217150
  H        15.1481784501       -0.8152011197       -2.6905667511
  H        15.1463053007        0.8164494386       -2.6909755424
  H        15.1466876241       -0.8163364807        2.6911640093
  H        15.1484839261        0.8152021786        2.6907870637
  H        16.8028776062       -2.1976705165       -0.0000000267
  H        16.8028805928        2.1976778414        0.0001087370
  H        12.0955732451       -0.8139067801       -2.6865646456
  H        12.0859468216        0.8097746306       -2.6824648618
  H        12.0851411986       -0.8099737022        2.6820450181
  H        12.0946803928        0.8139895975        2.6859977752
  H        13.7415662290       -2.1968238429        0.0014435823
  H        13.7415012937        2.1967753865       -0.0008908083
  H         9.1674588827       -0.8077125334       -2.8346631933
  H         9.1673445181        0.8127023306       -2.8363744582
  H         9.1671637708       -0.8126823592        2.8363436113
  H         9.1670945182        0.8077190573        2.8346646793
  H        10.7854342721       -2.2522786682       -0.0019638722
  H        10.7855395320        2.2523776365        0.0000615052
  H         6.2390688767       -0.8133530351       -2.6867216264
  H         6.2487818120        0.8098057235       -2.6828334441
  H         6.2480141052       -0.8096592938        2.6833531260
  H         6.2382617318        0.8132790532        2.6874663946
  H         7.5509046803       -2.2501777818        0.0001062797
  H         7.5510429318        2.2501083795        0.0017943595
  H         3.1838669693       -0.8139324799       -2.6900559970
  H         3.1854398428        0.8152504838       -2.6904558192
  H         3.1857658432       -0.8153468442        2.6902700052
  H         3.1841982411        0.8139138522        2.6898414659
  H         4.5949435738       -2.1963174209        0.0008293049
  H         4.5948466627        2.1964101798       -0.0014222499
  H         0.0522694671       -0.8178476119       -2.7029968204