     216
 i =        1, E =     -5073.7221365592
 Bi         2.5897130907        1.2738749007       10.2347755561
 Bi         2.5563388813        6.3666780234       10.2348614295
 Bi         2.5217640945       11.4597261996       10.2351343469
 Bi         7.7849107752        1.2744173413       10.2350142834
 Bi         7.7508404376        6.3667327892       10.2348821290
 Bi         7.7167700029       11.4590484855       10.2350143835
 Bi        12.9799168544        1.2737395855       10.2351342657
 Bi        12.9453419925        6.3667874956       10.2348613448
 Bi        12.9119678163       11.4595909471       10.2347755803
 Bi         2.5734664138        3.8207835204        1.4703924247
 Bi         2.5394939528        8.9129408064        1.4700828073
 Bi         2.5046756600       14.0067065558        1.4699049802
 Bi         7.7657152453        3.8246955436        1.4770798677
 Bi         7.7359657799        8.9087698827        1.4770798712
 Bi         7.6997694278       14.0068123047        1.4703051137
 Bi        12.9621870633        3.8205246057        1.4700828568
 Bi        12.9282146507        8.9126818794        1.4703924410
 Bi        12.8948631292       14.0069179726        1.4699050291
 Bi        -0.0083958896        1.2738135354        7.3214236666
 Bi        -0.0425588250        6.3667334869        7.3210110804
 Bi        -0.0767217366       11.4596536318        7.3214236899
 Bi         5.1876311852        1.2745850487        7.3212627375
 Bi         5.1577803322        6.3687038083        7.3142907154
 Bi         5.1198362183       11.4589314828        7.3209434785
 Bi        10.3818457451        1.2745356428        7.3209435235
 Bi        10.3439016114        6.3647631724        7.3142907399
 Bi        10.3140507432       11.4588820258        7.3212628262
 Bi        -0.0253970204        3.8205329218        4.3830050637
 Bi        -0.0597217031        8.9129331633        4.3830050378
 Bi        -0.0936304813       14.0068125668        4.3827220154
 Bi         5.1775745501        3.8262752968        4.3799200750
 Bi         5.1423664291        8.9061653128        4.3856725077
 Bi         5.1024865382       14.0066878959        4.3824370658
 Bi        10.3593143989        3.8273007432        4.3856725570
 Bi        10.3241063407        8.9071907658        4.3799200530
 Bi        10.2970521320       14.0069371887        4.3824371086
  O         3.8903786859        1.9864289963        0.5229142048
  O         3.8554793081        7.0805855460        0.5224859381
  O         3.8218138496       12.1736539622        0.5225894033
  O         9.0878981708        1.9847039090        0.5228985866
  O         9.0523664089        7.0796903165        0.5221392665
  O         9.0181714611       12.1732751360        0.5230587009
  O        14.2821840404        1.9860939632        0.5230830557
  O        14.2480346821        7.0797231347        0.5231401000
  O        14.2138402466       12.1731396102        0.5231035249
  O         3.3035461246        2.5447716445        3.4476449742
  O         3.2705706610        7.6396193104        3.4477873896
  O         3.2373193238       12.7337247175        3.4478201887
  O         8.5006585570        2.5449672067        3.4482068614
  O         8.4801791739        7.6566942246        3.4331066627
  O         8.4333444794       12.7341603278        3.4476130180
  O        13.6967213081        2.5466598461        3.4480764716
  O        13.6631067383        7.6407561107        3.4475654610
  O        13.6288219457       12.7339323821        3.4477245883
  O         1.2752159874        4.5332252494        6.3750921276
  O         1.2414159860        9.6267689836        6.3752833415
  O         1.2076599879       14.7198317541        6.3754101424
  O         6.4708506976        4.5316877314        6.3769080465
  O         6.4369389487        9.6285205264        6.3763852576
  O         6.4035162435       14.7196406371        6.3755654188
  O        11.6687199301        4.5322104032        6.3763609742
  O        11.6342943454        9.6267792284        6.3773956404
  O        11.5996107021       14.7193021498        6.3756404244
  O         0.7244882391       -0.0002808174        9.3004106942
  O         0.6902809626        5.0929915536        9.3005848327
  O         0.6565665275       10.1868009210        9.3002906959
  O         5.9200657632       -0.0003936292        9.3004516679
  O         5.8861402509        5.0923368396        9.3014177460
  O         5.8522897523       10.1871268401        9.3003089114
  O        11.1159311055       -0.0002295894        9.3005815684
  O        11.0821383487        5.0924993908        9.3013689515
  O        11.0482119517       10.1872965769        9.3001208097
  O         1.7707168332       15.2796923527        3.4477244119
  O         1.8385742579        5.0927094656        3.4475652690
  O         1.8049596953       10.1868061343        3.4480762036
  O         6.9661942315       15.2794643893        3.4476128448
  O         7.0215017315        5.0767713436        3.4331064858
  O         7.0010222946       10.1884987492        3.4482065789
  O        12.1622194446       15.2798999805        3.4478200127
  O        12.2311102289        5.0938462099        3.4477871731
  O        12.1981347623       10.1886942969        3.4476446670
  O         0.7070761167        2.5460360195        2.4039591439
  O         0.6733674553        7.6398784033        2.4040442701
  O         0.6395047329       12.7334979303        2.4042025720
  O         5.9023160332        2.5449389100        2.4031594090
  O         5.8678359101        7.6405480845        2.4027342217
  O         5.8352832424       12.7340287863        2.4045195888
  O        11.0991759272        2.5454131220        2.4021457868
  O        11.0667193641        7.6404181941        2.4031942254
  O        11.0310424611       12.7338121544        2.4043415733
  O         4.4534690845        2.5461697452        9.3001204381
  O         4.4195426964        7.6409666991        9.3013686915
  O         4.3857499692       12.7336956668        9.3005813412
  O         9.6493911886        2.5463394741        9.3003085099
  O         9.6155408911        7.6411292665        9.3014174706
  O         9.5816152728       12.7338596843        9.3004514193
  O        14.8451145877        2.5466654059        9.3002903243
  O        14.8114002522        7.6404745255        9.3005845893
  O        14.7771929164       12.7337468988        9.3004104556
  O         1.2706803990        3.1069457355       11.1810788219
  O         1.2364701033        8.2005747104       11.1811818793
  O         1.2025358327       13.2939383584       11.1812255975
  O         6.4656146301        3.1066855261       11.1803081967
  O         6.4314036798        8.2004662383       11.1802547884
  O         6.3980141383       13.2941046593       11.1810480052
  O        11.6626754487        3.1065543016       11.1815216633
  O        11.6284756499        8.2002381160       11.1813414640
  O        11.5940801840       13.2937540295       11.1813456365
  O         1.8556302341        2.5459865715        8.2570347634
  O         1.8219546803        7.6401036428        8.2565685166
  O         1.7880280358       12.7335395035        8.2565204750
  O         7.0508090555        2.5455374376        8.2571905461
  O         7.0177389326        7.6401707211        8.2575325250
  O         6.9836616813       12.7337113412        8.2564751052
  O        12.2472938167        2.5464840619        8.2567036159
  O        12.2150110360        7.6416848056        8.2567301334
  O        12.1795281939       12.7338118273        8.2565450553
  O         3.8856742498        0.5602262918        5.3290380511
  O         3.8499437844        5.6540628186        5.3289458772
  O         3.8156504652       10.7489015696        5.3294996938
  O         9.0819926515        0.5597830462        5.3295357683
  O         9.0649943709        5.6404926723        5.3439822079
  O         9.0127760339       10.7479130638        5.3293344230
  O        14.2774016060        0.5600314461        5.3294020231
  O        14.2436055278        5.6532797992        5.3295254624
  O        14.2091307847       10.7470892743        5.3293147116
  O         4.3684961632       15.2798123451        2.4043412799
  O         4.4349615592        5.0930470288        2.4031938995
  O         4.4025049295       10.1880524957        2.4021455539
  O         9.5642553389       15.2795957333        2.4045193150
  O         9.6338448512        5.0929171548        2.4027339552
  O         9.5993647164       10.1885266940        2.4031592097
  O        14.7600338966       15.2801266033        2.4042022899
  O        14.8283134079        5.0935868482        2.4040439978
  O        14.7946047664       10.1874296216        2.4039589413
  O         3.8732048141        4.5332270326       11.1813415119
  O         3.8390051642        9.6269113379       11.1815216806
  O         3.8054581094       14.7198705360       11.1813456749
  O         9.0702767154        4.5329989460       11.1802548641
  O         9.0360659586        9.6267801855       11.1803082105
  O         9.0015241334       14.7195199490       11.1810480337
  O        14.2652104119        4.5328904572       11.1811819135
  O        14.2310002883        9.6265199292       11.1810788050
  O        14.1970025233       14.7196861816       11.1812256120
  O         3.3221534446       -0.0003454045        8.2565453042
  O         3.2866707647        5.0917816077        8.2567304188
  O         3.2543877978       10.1869826237        8.2567037778
  O         8.5180198733       -0.0002448768        8.2564753320
  O         8.4839426607        5.0932957500        8.2575327600
  O         8.4508723915       10.1879292694        8.2571906976
  O        13.7136535680       -0.0000730359        8.2565207102
  O        13.6797269769        5.0933628094        8.2565687865
  O        13.6460513600       10.1874801668        8.2570349297
  O         1.2925499740        1.9863770586        5.3293144864
  O         1.2580750590        7.0801861033        5.3295252360
  O         1.2242790653       12.1734344930        5.3294017964
  O         6.4889047432        1.9855532511        5.3293342144
  O         6.4366862793        7.0929732432        5.3439819831
  O         6.4196880296       12.1736828800        5.3295355685
  O        11.6860303388        1.9845647465        5.3294994665
  O        11.6517368390        7.0794030483        5.3289456425
  O        11.6160064019       12.1732396000        5.3290378488
  O         3.8673876950        3.1066874280        6.3773957883
  O         3.8329618893        8.2012557854        6.3763611751
  O         3.7999289236       13.2943233415        6.3756406112
  O         9.0647430436        3.1049461633        6.3763854273
  O         9.0308311326        8.2017784922        6.3769082664
  O         8.9960234036       13.2939848775        6.3755656176
  O        14.2602661195        3.1066977772        6.3752834667
  O        14.2264659761        8.2002410483        6.3750923084
  O        14.1918797128       13.2937938092        6.3754103154
  O         1.2878409724        0.5603258801        0.5231035220
  O         1.2536465079        5.6537423776        0.5231400737
  O         1.2194973067       10.7473720749        0.5230830565
  O         6.4835097306        0.5601904103        0.5230587066
  O         6.4493147967        5.6537752761        0.5221392346
  O         6.4137831408       10.7487621694        0.5228985996
  O        11.6798673707        0.5598115386        0.5225894063
  O        11.6462018457        5.6528799460        0.5224859272
  O        11.6113026019       10.7470370068        0.5229141943
  V        -0.0084937417        1.2738218169        1.4499558932
  V        -0.0425592600        6.3667326867        1.4499564064
  V        -0.0766247168       11.4596438401        1.4499559194
  V         5.1878985877        1.2744031007        1.4503337147
  V         5.1554618628        6.3658001912        1.4521477938
  V         5.1197394564       11.4585742957        1.4497702908
  V        10.3819416752        1.2748913450        1.4497702314
  V        10.3462192191        6.3676651637        1.4521478137
  V        10.3137825210       11.4590625129        1.4503337425
  V         2.5738447308        3.8208121820        7.3019805850
  V         2.5392670938        8.9126708667        7.3014023553
  V         2.5046762278       14.0068166347        7.3017634782
  V         7.7689514612        3.8225918431        7.2994076236
  V         7.7327303792        8.9108749175        7.2994076493
  V         7.6997697756       14.0068128655        7.3017650183
  V        12.9624148104        3.8207958904        7.3014022894
  V        12.9278372295        8.9126545988        7.3019805893
  V        12.8948633498       14.0068091087        7.3017634573
  V        -0.0254485661        3.8203418791       10.2546742828
  V        -0.0596701268        8.9131241315       10.2546742661
  V        -0.0936304881       14.0068125127       10.2547602352
  V         5.1711435040        3.8207153769       10.2546616910
  V         5.1366987003        8.9124147339       10.2548257751
  V         5.1022939217       14.0067214569       10.2548572112
  V        10.3649821056        3.8210512159       10.2548258213
  V        10.3305373453        8.9127506204       10.2546617288
  V        10.2972446062       14.0069035425       10.2548572172
  V         2.5901691061        1.2747443990        4.4020259147
  V         2.5570430296        6.3666379307        4.4027686798
  V         2.5225891215       11.4592820515        4.4030102525
  V         7.7850243133        1.2752049721        4.4023066984
  V         7.7508403454        6.3667326709        4.4024742383
  V         7.7166564377       11.4582607575        4.4023067013
  V        12.9790916526        1.2741837073        4.4030102211
  V        12.9446376369        6.3668275734        4.4027686386
  V        12.9115116357       11.4587213320        4.4020259147
     216
 i =        2, E =     -5073.7249529923
 Bi         2.5897637037        1.2739634960       10.2347187754
 Bi         2.5565270708        6.3666505559       10.2348136809
 Bi         2.5218580404       11.4596798253       10.2351906935
 Bi         7.7849335380        1.2746018260       10.2350564732
 Bi         7.7508404388        6.3667327921       10.2348774778
 Bi         7.7167472438       11.4588640033       10.2350565715
 Bi        12.9798229157        1.2737859593       10.2351906056
 Bi        12.9451538073        6.3668149685       10.2348135970
 Bi        12.9119172073       11.4595023536       10.2347187984
 Bi         2.5736202712        3.8208668835        1.4704993984
 Bi         2.5397005855        8.9129189289        1.4701600648
 Bi         2.5047525750       14.0066703809        1.4699644402
 Bi         7.7652994809        3.8254324057        1.4783827658
 Bi         7.7363815425        8.9080330229        1.4783827708
 Bi         7.6997694269       14.0068123048        1.4704335416
 Bi        12.9619804260        3.8205464886        1.4701601226
 Bi        12.9280607884        8.9125985223        1.4704994232
 Bi        12.8947862141       14.0069541475        1.4699644885
 Bi        -0.0083579475        1.2738837271        7.3213660134
 Bi        -0.0425588254        6.3667334795        7.3208848510
 Bi        -0.0767596825       11.4595834275        7.3213660439
 Bi         5.1876643506        1.2747855107        7.3211914897
 Bi         5.1585333944        6.3690883760        7.3129828843
 Bi         5.1199333616       11.4587838923        7.3208396527
 Bi        10.3817485944        1.2746832236        7.3208396969
 Bi        10.3431485423        6.3643785967        7.3129829101
 Bi        10.3140175713       11.4586815545        7.3211915777
 Bi        -0.0253671639        3.8205786264        4.3830770549
 Bi        -0.0597515583        8.9128874591        4.3830770301
 Bi        -0.0936304806       14.0068125653        4.3827214634
 Bi         5.1788566843        3.8273006198        4.3793511981
 Bi         5.1434193489        8.9049271663        4.3862630201
 Bi         5.1025382232       14.0066581391        4.3823598496
 Bi        10.3582614779        3.8285388926        4.3862630748
 Bi        10.3228242058        8.9061654417        4.3793511769
 Bi        10.2970004478       14.0069669429        4.3823598921
  O         3.8903844608        1.9864541977        0.5229055865
  O         3.8555484314        7.0806100510        0.5225458992
  O         3.8217484315       12.1737331851        0.5225160363
  O         9.0881014960        1.9844781920        0.5227899581
  O         9.0523912322        7.0796843439        0.5219754900
  O         9.0181961872       12.1732984649        0.5230491831
  O        14.2822065534        1.9860943346        0.5230456288
  O        14.2480596627        7.0797395065        0.5231234151
  O        14.2138678317       12.1731465080        0.5230890073
  O         3.3032988761        2.5445686343        3.4474872621
  O         3.2704879986        7.6395190615        3.4477810664
  O         3.2373271656       12.7337592240        3.4478180515
  O         8.5006263179        2.5447970986        3.4481636142
  O         8.4820793035        7.6585175064        3.4312415662
  O         8.4333502657       12.7341498986        3.4476305430
  O        13.6967288194        2.5466662330        3.4480894467
  O        13.6631246458        7.6407585459        3.4475641720
  O        13.6288294359       12.7339382476        3.4477259324
  O         1.2751329820        4.5332725378        6.3750292540
  O         1.2414147310        9.6267933874        6.3752821810
  O         1.2076605528       14.7198488046        6.3754114556
  O         6.4707036864        4.5315801630        6.3770020471
  O         6.4368722068        9.6289588042        6.3765390986
  O         6.4035470476       14.7196337413        6.3755725026
  O        11.6688426326        4.5321664614        6.3763858160
  O        11.6344059971        9.6268859504        6.3776549702
  O        11.5996505656       14.7192642993        6.3756331444
  O         0.7244700909       -0.0003129367        9.3004277931
  O         0.6902405757        5.0929636971        9.3006285131
  O         0.6565651097       10.1867820289        9.3003075012
  O         5.9200478690       -0.0004310457        9.3004629904
  O         5.8862025913        5.0922409631        9.3015610183
  O         5.8523153421       10.1871689682        9.3003093978
  O        11.1159371196       -0.0002535728        9.3006107920
  O        11.0821975673        5.0923780852        9.3015055650
  O        11.0482480315       10.1873321490        9.3001246267
  O         1.7707093433       15.2796864869        3.4477257591
  O         1.8385563508        5.0927070293        3.4475639826
  O         1.8049521833       10.1867997451        3.4480891807
  O         6.9661884469       15.2794748192        3.4476303743
  O         7.0196015980        5.0749480600        3.4312413865
  O         7.0010545354       10.1886688564        3.4481633348
  O        12.1622116038       15.2798654755        3.4478178804
  O        12.2311928936        5.0939464598        3.4477808544
  O        12.1983820126       10.1888973066        3.4474869585
  O         0.7070141283        2.5459900835        2.4039436011
  O         0.6733350575        7.6398391610        2.4040157121
  O         0.6394973099       12.7334881064        2.4041798963
  O         5.9022406552        2.5447988974        2.4031040043
  O         5.8677180488        7.6406805094        2.4026241082
  O         5.8353095329       12.7341019274        2.4045616332
  O        11.0992605954        2.5453004378        2.4018511626
  O        11.0670977179        7.6404755262        2.4030287397
  O        11.0310433679       12.7338035023        2.4043195718
  O         4.4534330064        2.5461341710        9.3001242584
  O         4.4194834787        7.6410880013        9.3015053076
  O         4.3857439570       12.7337196470        9.3006105677
  O         9.6493656028        2.5462973465        9.3003090021
  O         9.6154785523        7.6412251417        9.3015607471
  O         9.5816331706       12.7338971004        9.3004627467
  O        14.8451160094        2.5466842984        9.3003071321
  O        14.8114406417        7.6405023814        9.3006282712
  O        14.7772110663       12.7337790163        9.3004275584
  O         1.2706626602        3.1069158475       11.1810740371
  O         1.2364401554        8.2005673559       11.1811931708
  O         1.2025117811       13.2939307272       11.1812312971
  O         6.4654982910        3.1065978465       11.1802002696
  O         6.4313090535        8.2003823358       11.1801346834
  O         6.3979936611       13.2941223383       11.1810252252
  O        11.6627234411        3.1064933880       11.1815412512
  O        11.6285267063        8.2001888741       11.1813606071
  O        11.5940709243       13.2937286658       11.1813502157
  O         1.8555806332        2.5459336060        8.2570811186
  O         1.8219584192        7.6401374371        8.2565524228
  O         1.7880462401       12.7335740049        8.2565097611
  O         7.0508027270        2.5456204241        8.2571002061
  O         7.0177701906        7.6401965792        8.2576728589
  O         6.9836683853       12.7337442588        8.2564679690
  O        12.2472943820        2.5465020158        8.2566911550
  O        12.2152716920        7.6418890424        8.2568170155
  O        12.1795540040       12.7338434208        8.2565601523
  O         3.8856843928        0.5601943830        5.3290467769
  O         3.8497733530        5.6540716866        5.3290139332
  O         3.8154409501       10.7491214878        5.3296849862
  O         9.0820055951        0.5597360524        5.3295640253
  O         9.0669936325        5.6385618311        5.3458729924
  O         9.0126946508       10.7479714989        5.3293668907
  O        14.2774165795        0.5599998034        5.3294269037
  O        14.2436071598        5.6532489784        5.3295356676
  O        14.2091761003       10.7470597335        5.3293365690
  O         4.3684952576       15.2798209997        2.4043192824
  O         4.4345832053        5.0929896991        2.4030284194
  O         4.4024202585       10.1881651810        2.4018509333
  O         9.5642290513       15.2795225964        2.4045613617
  O         9.6339627160        5.0927847351        2.4026238447
  O         9.5994400973       10.1886667118        2.4031038084
  O        14.7600413212       15.2801364306        2.4041796177
  O        14.8283458068        5.0936260948        2.4040154441
  O        14.7946667550       10.1874755609        2.4039434034
  O         3.8731537640        4.5332762771       11.1813606532
  O         3.8389571768        9.6269722561       11.1815412674
  O         3.8054673734       14.7198959026       11.1813502539
  O         9.0703713498        4.5330828498       11.1801347562
  O         9.0361823037        9.6268678688       11.1802002830
  O         9.0015446166       14.7195022718       11.1810252525
  O        14.2652403654        4.5328978146       11.1811932034
  O        14.2310180311        9.6265498221       11.1810740209
  O        14.1970265792       14.7196938155       11.1812313110
  O         3.3221276305       -0.0003770035        8.2565603996
  O         3.2864101003        5.0915773654        8.2568172983
  O         3.2543872286       10.1869646657        8.2566913154
  O         8.5180131667       -0.0002778006        8.2564681942
  O         8.4839113990        5.0932698859        8.2576730916
  O         8.4508787184       10.1878462787        8.2571003561
  O        13.7136353603       -0.0001075447        8.2565099938
  O        13.6797232323        5.0933290073        8.2565526887
  O        13.6461009567       10.1875331260        8.2570812822
  O         1.2925046647        1.9864066016        5.3293363472
  O         1.2580734336        7.0802169265        5.3295354441
  O         1.2242640962       12.1734661368        5.3294266805
  O         6.4889861336        1.9854948171        5.3293666840
  O         6.4346870303        7.0949040901        5.3458727664
  O         6.4196750909       12.1737298748        5.3295638285
  O        11.6862398610        1.9843448294        5.3296847611
  O        11.6519072777        7.0793941816        5.3290137005
  O        11.6159962644       12.1732715094        5.3290465778
  O         3.8672760347        3.1065807053        6.3776551162
  O         3.8328391793        8.2012997234        6.3763860134
  O         3.7998890515       13.2943611890        6.3756333284
  O         9.0648097764        3.1045078853        6.3765392666
  O         9.0309781349        8.2018860565        6.3770022634
  O         8.9959925902       13.2939917702        6.3755726989
  O        14.2602673623        3.1066733725        6.3752823057
  O        14.2265489702        8.2001937567        6.3750294318
  O        14.1918791362       13.2937767566        6.3754116266
  O         1.2878133828        0.5603189815        0.5230890051
  O         1.2536215244        5.6537260055        0.5231233888
  O         1.2194747913       10.7473717026        0.5230456291
  O         6.4834850017        0.5601670796        0.5230491889
  O         6.4492899718        5.6537812471        0.5219754579
  O         6.4135798143       10.7489878851        0.5227899706
  O        11.6799327841        0.5597323142        0.5225160399
  O        11.6461327192        5.6528554407        0.5225458884
  O        11.6112968242       10.7470118049        0.5229055763
  V        -0.0084914816        1.2738160322        1.4499420923
  V        -0.0425592603        6.3667326885        1.4499527591
  V        -0.0766269771       11.4596496257        1.4499421186
  V         5.1878779028        1.2743570194        1.4502766759
  V         5.1555546194        6.3656507351        1.4522509290
  V         5.1197592670       11.4585156768        1.4496918753
  V        10.3819218653        1.2749499659        1.4496918181
  V        10.3461264614        6.3678146236        1.4522509496
  V        10.3138032053       11.4591085946        1.4502767043
  V         2.5738982185        3.8208443552        7.3020209776
  V         2.5392219270        8.9126902406        7.3014095421
  V         2.5046676642       14.0068162357        7.3017316469
  V         7.7691318278        3.8226983268        7.2992339810
  V         7.7325500039        8.9107684284        7.2992340076
  V         7.6997697715       14.0068128615        7.3017223906
  V        12.9624599687        3.8207765111        7.3014094770
  V        12.9277837328        8.9126224199        7.3020209832
  V        12.8948719061       14.0068095003        7.3017316265
  V        -0.0254418937        3.8203349282       10.2546705152
  V        -0.0596767984        8.9131310804       10.2546704977
  V        -0.0936304864       14.0068125125       10.2547833811
  V         5.1711831269        3.8207249371       10.2546520789
  V         5.1367007629        8.9123733107       10.2548792289
  V         5.1022850422       14.0067148885       10.2549098881
  V        10.3649800460        3.8210926411       10.2548792732
  V        10.3304977258        8.9127410615       10.2546521149
  V        10.2972534903       14.0069101103       10.2549098933
  V         2.5902103035        1.2748263742        4.4020181335
  V         2.5570275168        6.3666161557        4.4027743921
  V         2.5226640016       11.4592434562        4.4030620042
  V         7.7850533392        1.2751931395        4.4023407853
  V         7.7508403472        6.3667326590        4.4025009172
  V         7.7166274151       11.4582725908        4.4023407878
  V        12.9790167766        1.2742223039        4.4030619726
  V        12.9446531536        6.3668493520        4.4027743506
  V        12.9114704428       11.4586393578        4.4020181327
     216
 i =        3, E =     -5073.7275269853
 Bi         2.5898145931        1.2740568118       10.2346560645
 Bi         2.5567240373        6.3666185226       10.2347574294
 Bi         2.5219565470       11.4596325631       10.2352523043
 Bi         7.7849610304        1.2747954670       10.2351068814
 Bi         7.7508404402        6.3667327951       10.2348741538
 Bi         7.7167197555       11.4586703650       10.2351069779
 Bi        12.9797244141        1.2738332232       10.2352522158
 Bi        12.9449568457        6.3668470070       10.2347573466
 Bi        12.9118663219       11.4594090398       10.2346560865
 Bi         2.5737690613        3.8209499268        1.4706067358
 Bi         2.5399151116        8.9129029515        1.4702437200
 Bi         2.5048311416       14.0066305591        1.4700257736
 Bi         7.7648752425        3.8261701623        1.4797088786
 Bi         7.7368057801        8.9072952688        1.4797088854
 Bi         7.6997694262       14.0068123044        1.4705656408
 Bi        12.9617658989        3.8205624695        1.4702437793
 Bi        12.9279119964        8.9125154827        1.4706067622
 Bi        12.8947076435       14.0069939725        1.4700258311
 Bi        -0.0083161361        1.2739561089        7.3213069202
 Bi        -0.0425588284        6.3667334748        7.3207539618
 Bi        -0.0768014975       11.4595110317        7.3213069453
 Bi         5.1876902788        1.2749938630        7.3211149556
 Bi         5.1592871359        6.3694803551        7.3116480926
 Bi         5.1200292654       11.4586408105        7.3207372604
 Bi        10.3816526826        1.2748262955        7.3207373035
 Bi        10.3423947931        6.3639866087        7.3116481197
 Bi        10.3139916356       11.4584731925        7.3211150432