 DBCSR| Multiplication driver                                               BLAS
 DBCSR| Multrec recursion limit                                              512
 DBCSR| Multiplication stack size                                           1000
 DBCSR| Maximum elements for images                                    UNLIMITED
 DBCSR| Multiplicative factor virtual images                                   1
 DBCSR| Multiplication size stacks                                             3
 DBCSR| Number of 3D layers                                               SINGLE
 DBCSR| Use MPI memory allocation                                              T
 DBCSR| Use RMA algorithm                                                      F
 DBCSR| Use Communication thread                                               T
 DBCSR| Communication thread load                                             87


  **** **** ******  **  PROGRAM STARTED AT               2019-08-02 13:25:20.599
 ***** ** ***  *** **   PROGRAM STARTED ON        cpn-p28-06.cbls.ccr.buffalo.ed
 **    ****   ******    PROGRAM STARTED BY                              pavankum
 ***** **    ** ** **   PROGRAM PROCESS ID                                 22550
  **** **  *******  **  PROGRAM STARTED IN /projects/academic/mdupuis2/pavan/VAB
                                           _calculation/results_for_paper/7.TiO2
                                           _pbe_plus_U10/point_0.3

 CP2K| version string:                                          CP2K version 6.1
 CP2K| source code revision number:                                    svn:18464
 CP2K| cp2kflags: libint fftw3 libxc parallel mpi3 scalapack libderiv_max_am1=5 
 CP2K|            libint_max_am=6
 CP2K| is freely available from                            https://www.cp2k.org/
 CP2K| Program compiled at                          Fri Nov 30 14:17:09 EST 2018
 CP2K| Program compiled on                       srv-p22-12.cbls.ccr.buffalo.edu
 CP2K| Program compiled for                                                local
 CP2K| Data directory path    /projects/academic/mdupuis2/pavan/cp2k/cp2k-6.1/da
 CP2K| Input file name                                                 input.inp

 GLOBAL| Force Environment number                                              1
 GLOBAL| Basis set file name            /projects/academic/mdupuis2/pavan/BASIS_
 GLOBAL| Potential file name            /projects/academic/mdupuis2/pavan/POTENT
 GLOBAL| MM Potential file name                                     MM_POTENTIAL
 GLOBAL| Coordinate file name                           ./intermediate_point.xyz
 GLOBAL| Method name                                                        CP2K
 GLOBAL| Project name                                                    p_tio2_
 GLOBAL| Preferred FFT library                                             FFTW3
 GLOBAL| Preferred diagonalization lib.                                       SL
 GLOBAL| Run type                                                         ENERGY
 GLOBAL| All-to-all communication in single precision                          F
 GLOBAL| FFTs using library dependent lengths                                  T
 GLOBAL| Global print level                                               MEDIUM
 GLOBAL| Total number of message passing processes                            40
 GLOBAL| Number of threads for this process                                    1
 GLOBAL| This output is from process                                           0
 GLOBAL| CPU model name :  Intel(R) Xeon(R) CPU E5-2650 v4 @ 2.20GHz

 MEMORY| system memory details [Kb]
 MEMORY|                        rank 0           min           max       average
 MEMORY| MemTotal            131746140     131740876     131746140     131743508
 MEMORY| MemFree             119037028     119037028     124769616     121903322
 MEMORY| Buffers                496676        495952        496676        496314
 MEMORY| Cached                7784480       2224572       7784480       5004526
 MEMORY| Slab                   352836        352836        415152        383994
 MEMORY| SReclaimable           235912        234192        235912        235052
 MEMORY| MemLikelyFree       127554096     127554096     127724332     127639214


 *** Fundamental physical constants (SI units) ***

 *** Literature: B. J. Mohr and B. N. Taylor,
 ***             CODATA recommended values of the fundamental physical
 ***             constants: 2006, Web Version 5.1
 ***             http://physics.nist.gov/constants

 Speed of light in vacuum [m/s]                             2.99792458000000E+08
 Magnetic constant or permeability of vacuum [N/A**2]       1.25663706143592E-06
 Electric constant or permittivity of vacuum [F/m]          8.85418781762039E-12
 Planck constant (h) [J*s]                                  6.62606896000000E-34
 Planck constant (h-bar) [J*s]                              1.05457162825177E-34
 Elementary charge [C]                                      1.60217648700000E-19
 Electron mass [kg]                                         9.10938215000000E-31
 Electron g factor [ ]                                     -2.00231930436220E+00
 Proton mass [kg]                                           1.67262163700000E-27
 Fine-structure constant                                    7.29735253760000E-03
 Rydberg constant [1/m]                                     1.09737315685270E+07
 Avogadro constant [1/mol]                                  6.02214179000000E+23
 Boltzmann constant [J/K]                                   1.38065040000000E-23
 Atomic mass unit [kg]                                      1.66053878200000E-27
 Bohr radius [m]                                            5.29177208590000E-11

 *** Conversion factors ***

 [u] -> [a.u.]                                              1.82288848426455E+03
 [Angstrom] -> [Bohr] = [a.u.]                              1.88972613288564E+00
 [a.u.] = [Bohr] -> [Angstrom]                              5.29177208590000E-01
 [a.u.] -> [s]                                              2.41888432650478E-17
 [a.u.] -> [fs]                                             2.41888432650478E-02
 [a.u.] -> [J]                                              4.35974393937059E-18
 [a.u.] -> [N]                                              8.23872205491840E-08
 [a.u.] -> [K]                                              3.15774647902944E+05
 [a.u.] -> [kJ/mol]                                         2.62549961709828E+03
 [a.u.] -> [kcal/mol]                                       6.27509468713739E+02
 [a.u.] -> [Pa]                                             2.94210107994716E+13
 [a.u.] -> [bar]                                            2.94210107994716E+08
 [a.u.] -> [atm]                                            2.90362800883016E+08
 [a.u.] -> [eV]                                             2.72113838565563E+01
 [a.u.] -> [Hz]                                             6.57968392072181E+15
 [a.u.] -> [1/cm] (wave numbers)                            2.19474631370540E+05
 [a.u./Bohr**2] -> [1/cm]                                   5.14048714338585E+03
 

 CELL_TOP| Volume [angstrom^3]:                                         2867.349
 CELL_TOP| Vector a [angstrom    13.869     0.000     0.000    |a| =      13.869
 CELL_TOP| Vector b [angstrom     0.000    13.869     0.000    |b| =      13.869
 CELL_TOP| Vector c [angstrom     0.000     0.000    14.907    |c| =      14.907
 CELL_TOP| Angle (b,c), alpha [degree]:                                   90.000
 CELL_TOP| Angle (a,c), beta  [degree]:                                   90.000
 CELL_TOP| Angle (a,b), gamma [degree]:                                   90.000
 CELL_TOP| Numerically orthorhombic:                                         YES

 CELL| Volume [angstrom^3]:                                             2867.349
 CELL| Vector a [angstrom]:      13.869     0.000     0.000    |a| =      13.869
 CELL| Vector b [angstrom]:       0.000    13.869     0.000    |b| =      13.869
 CELL| Vector c [angstrom]:       0.000     0.000    14.907    |c| =      14.907
 CELL| Angle (b,c), alpha [degree]:                                       90.000
 CELL| Angle (a,c), beta  [degree]:                                       90.000
 CELL| Angle (a,b), gamma [degree]:                                       90.000
 CELL| Numerically orthorhombic:                                             YES

 CELL_REF| Volume [angstrom^3]:                                         2867.349
 CELL_REF| Vector a [angstrom    13.869     0.000     0.000    |a| =      13.869
 CELL_REF| Vector b [angstrom     0.000    13.869     0.000    |b| =      13.869
 CELL_REF| Vector c [angstrom     0.000     0.000    14.907    |c| =      14.907
 CELL_REF| Angle (b,c), alpha [degree]:                                   90.000
 CELL_REF| Angle (a,c), beta  [degree]:                                   90.000
 CELL_REF| Angle (a,b), gamma [degree]:                                   90.000
 CELL_REF| Numerically orthorhombic:                                         YES

 *******************************************************************************
 *******************************************************************************
 **                                                                           **
 **     #####                         ##              ##                      **
 **    ##   ##            ##          ##              ##                      **
 **   ##     ##                       ##            ######                    **
 **   ##     ##  ##   ##  ##   #####  ##  ##   ####   ##    #####    #####    **
 **   ##     ##  ##   ##  ##  ##      ## ##   ##      ##   ##   ##  ##   ##   **
 **   ##  ## ##  ##   ##  ##  ##      ####     ###    ##   ######   ######    **
 **    ##  ###   ##   ##  ##  ##      ## ##      ##   ##   ##       ##        **
 **     #######   #####   ##   #####  ##  ##  ####    ##    #####   ##        **
 **           ##                                                    ##        **
 **                                                                           **
 **                                                ... make the atoms dance   **
 **                                                                           **
 **            Copyright (C) by CP2K developers group (2000 - 2018)           **
 **                                                                           **
 *******************************************************************************

 DFT| Spin unrestricted (spin-polarized) Kohn-Sham calculation               UKS
 DFT| Multiplicity                                                             2
 DFT| Number of spin states                                                    2
 DFT| Charge                                                                  -1
 DFT| Self-interaction correction (SIC)                                       NO
 DFT| Cutoffs: density                                              1.000000E-10
 DFT|          gradient                                             1.000000E-10
 DFT|          tau                                                  1.000000E-10
 DFT|          cutoff_smoothing_range                               0.000000E+00
 DFT| XC density smoothing                                                  NONE
 DFT| XC derivatives                                                          PW

 DFT+U| Method                                                          MULLIKEN
 DFT+U| Check atomic kind information for details
 FUNCTIONAL| ROUTINE=NEW
 FUNCTIONAL| PBE:
 FUNCTIONAL| J.P.Perdew, K.Burke, M.Ernzerhof, Phys. Rev. Letter, vol. 77, n 18,
 FUNCTIONAL|  pp. 3865-3868, (1996){spin polarized}                             

 QS| Method:                                                                 GPW
 QS| Density plane wave grid type                        NON-SPHERICAL FULLSPACE
 QS| Number of grid levels:                                                   10
 QS| Density cutoff [a.u.]:                                                325.0
 QS| Multi grid cutoff [a.u.]: 1) grid level                               325.0
 QS|                           2) grid level                               108.3
 QS|                           3) grid level                                36.1
 QS|                           4) grid level                                12.0
 QS|                           5) grid level                                 4.0
 QS|                           6) grid level                                 1.3
 QS|                           7) grid level                                 0.4
 QS|                           8) grid level                                 0.1
 QS|                           9) grid level                                 0.0
 QS|                          10) grid level                                 0.0
 QS| Grid level progression factor:                                          3.0
 QS| Relative density cutoff [a.u.]:                                        30.0
 QS| Consistent realspace mapping and integration 
 QS| Interaction thresholds: eps_pgf_orb:                                1.0E-12
 QS|                         eps_filter_matrix:                          0.0E+00
 QS|                         eps_core_charge:                            1.0E-14
 QS|                         eps_rho_gspace:                             1.0E-12
 QS|                         eps_rho_rspace:                             1.0E-12
 QS|                         eps_gvg_rspace:                             1.0E-06
 QS|                         eps_ppl:                                    1.0E-02
 QS|                         eps_ppnl:                                   1.0E-08


 ATOMIC KIND INFORMATION

  1. Atomic kind: Ti                                    Number of atoms:      90

     Orbital Basis Set                                         SZV-MOLOPT-SR-GTH

       Number of orbital shell sets:                                           1
       Number of orbital shells:                                               4
       Number of primitive Cartesian functions:                                6
       Number of Cartesian basis functions:                                   11
       Number of spherical basis functions:                                   10
       Norm type:                                                              2

       Normalised Cartesian orbitals:

                        Set   Shell   Orbital            Exponent    Coefficient

                          1       1    2s                7.884570       0.015554
                                                         3.894698       0.963603
                                                         1.513589      -0.631435
                                                         0.596768      -0.343022
                                                         0.222222      -0.006534
                                                         0.077078       0.007652

                          1       2    3s                7.884570      -0.009340
                                                         3.894698       0.212624
                                                         1.513589      -0.258368
                                                         0.596768      -0.226206
                                                         0.222222       0.039438
                                                         0.077078       0.107179

                          1       3    3px               7.884570      -2.034794
                                                         3.894698       0.782008
                                                         1.513589       1.253903
                                                         0.596768       0.347823
                                                         0.222222       0.016778
                                                         0.077078      -0.000433
                          1       3    3py               7.884570      -2.034794
                                                         3.894698       0.782008
                                                         1.513589       1.253903
                                                         0.596768       0.347823
                                                         0.222222       0.016778
                                                         0.077078      -0.000433
                          1       3    3pz               7.884570      -2.034794
                                                         3.894698       0.782008
                                                         1.513589       1.253903
                                                         0.596768       0.347823
                                                         0.222222       0.016778
                                                         0.077078      -0.000433

                          1       4    4dx2              7.884570       3.047350
                                                         3.894698       3.289529
                                                         1.513589       1.060616
                                                         0.596768       0.249930
                                                         0.222222       0.038806
                                                         0.077078       0.002319
                          1       4    4dxy              7.884570       5.278165
                                                         3.894698       5.697631
                                                         1.513589       1.837041
                                                         0.596768       0.432892
                                                         0.222222       0.067214
                                                         0.077078       0.004017
                          1       4    4dxz              7.884570       5.278165
                                                         3.894698       5.697631
                                                         1.513589       1.837041
                                                         0.596768       0.432892
                                                         0.222222       0.067214
                                                         0.077078       0.004017
                          1       4    4dy2              7.884570       3.047350
                                                         3.894698       3.289529
                                                         1.513589       1.060616
                                                         0.596768       0.249930
                                                         0.222222       0.038806
                                                         0.077078       0.002319
                          1       4    4dyz              7.884570       5.278165
                                                         3.894698       5.697631
                                                         1.513589       1.837041
                                                         0.596768       0.432892
                                                         0.222222       0.067214
                                                         0.077078       0.004017
                          1       4    4dz2              7.884570       3.047350
                                                         3.894698       3.289529
                                                         1.513589       1.060616
                                                         0.596768       0.249930
                                                         0.222222       0.038806
                                                         0.077078       0.002319

     GTH Potential information for                                   GTH-PBE-q12

       Description:                       Goedecker-Teter-Hutter pseudopotential
                                           Goedecker et al., PRB 54, 1703 (1996)
                                          Hartwigsen et al., PRB 58, 3641 (1998)
                                                      Krack, TCA 114, 145 (2005)

       Gaussian exponent of the core charge distribution:               3.462604
       Electronic configuration (s p d ...):                           4   6   2

       Parameters of the local part of the GTH pseudopotential:

                          rloc        C1          C2          C3          C4
                        0.380000    8.711442   -0.700287

       Parameters of the non-local part of the GTH pseudopotential:

                   l      r(l)      h(i,j,l)

                   0    0.337771    2.575264    3.692971
                                    3.692971   -4.767605
                   1    0.242531   -4.630541    8.870875
                                    8.870875  -10.496161
                   2    0.243317   -9.406653

     A DFT+U correction is applied to atoms of this atomic kind:
       Angular quantum momentum number L:                                      2
       U(eff) = (U - J) value in [eV]:                                     9.987

  2. Atomic kind: O                                     Number of atoms:     180

     Orbital Basis Set                                            SZV-MOLOPT-GTH

       Number of orbital shell sets:                                           1
       Number of orbital shells:                                               2
       Number of primitive Cartesian functions:                                7
       Number of Cartesian basis functions:                                    4
       Number of spherical basis functions:                                    4
       Norm type:                                                              2

       Normalised Cartesian orbitals:

                        Set   Shell   Orbital            Exponent    Coefficient

                          1       1    2s               12.015955      -0.284499
                                                         5.108150      -0.322498
                                                         2.048398       0.148191
                                                         0.832382       0.295475
                                                         0.352316       0.150829
                                                         0.142977       0.015788
                                                         0.046761      -0.000019

                          1       2    3px              12.015955       1.192141
                                                         5.108150       1.354170
                                                         2.048398       0.897267
                                                         0.832382       0.408839
                                                         0.352316       0.116648
                                                         0.142977       0.022184
                                                         0.046761       0.000308
                          1       2    3py              12.015955       1.192141
                                                         5.108150       1.354170
                                                         2.048398       0.897267
                                                         0.832382       0.408839
                                                         0.352316       0.116648
                                                         0.142977       0.022184
                                                         0.046761       0.000308
                          1       2    3pz              12.015955       1.192141
                                                         5.108150       1.354170
                                                         2.048398       0.897267
                                                         0.832382       0.408839
                                                         0.352316       0.116648
                                                         0.142977       0.022184
                                                         0.046761       0.000308

     GTH Potential information for                                    GTH-PBE-q6

       Description:                       Goedecker-Teter-Hutter pseudopotential
                                           Goedecker et al., PRB 54, 1703 (1996)
                                          Hartwigsen et al., PRB 58, 3641 (1998)
                                                      Krack, TCA 114, 145 (2005)

       Gaussian exponent of the core charge distribution:               8.360253
       Electronic configuration (s p d ...):                               2   4

       Parameters of the local part of the GTH pseudopotential:

                          rloc        C1          C2          C3          C4
                        0.244554  -16.667215    2.487311

       Parameters of the non-local part of the GTH pseudopotential:

                   l      r(l)      h(i,j,l)

                   0    0.220956   18.337458
                   1    0.211332


 MOLECULE KIND INFORMATION


 All atoms are their own molecule, skipping detailed information


 TOTAL NUMBERS AND MAXIMUM NUMBERS

  Total number of            - Atomic kinds:                                   2
                             - Atoms:                                        270
                             - Shell sets:                                   270
                             - Shells:                                       720
                             - Primitive Cartesian functions:               1800
                             - Cartesian basis functions:                   1710
                             - Spherical basis functions:                   1620

  Maximum angular momentum of- Orbital basis functions:                        2
                             - Local part of the GTH pseudopotential:          2
                             - Non-local part of the GTH pseudopotential:      3


 MODULE QUICKSTEP:  ATOMIC COORDINATES IN angstrom

  Atom  Kind  Element       X           Y           Z          Z(eff)       Mass

       1     1 Ti  22    0.000357    0.000564    0.000902     12.00      47.8670
       2     1 Ti  22    2.313578    2.309332    1.488619     12.00      47.8670
       3     1 Ti  22    4.632459    0.009457    0.000433     12.00      47.8670
       4     1 Ti  22    6.934573    2.311568    1.493077     12.00      47.8670
       5     1 Ti  22    9.244238    0.001654   -0.000233     12.00      47.8670
       6     1 Ti  22   11.555434    2.313621    1.488548     12.00      47.8670
       7     1 Ti  22   -0.000088    4.622650    0.000887     12.00      47.8670
       8     1 Ti  22    2.312358    6.933821    1.488142     12.00      47.8670
       9     1 Ti  22    4.624657    4.621234   -0.000233     12.00      47.8670
      10     1 Ti  22    6.936623    6.932431    1.488548     12.00      47.8670
      11     1 Ti  22    9.236706    4.613704    0.000468     12.00      47.8670
      12     1 Ti  22   11.554652    6.931645    1.488897     12.00      47.8670
      13     1 Ti  22    0.000074    9.246072    0.000371     12.00      47.8670
      14     1 Ti  22    2.314473   11.560472    1.488899     12.00      47.8670
      15     1 Ti  22    4.623566    9.246356    0.000902     12.00      47.8670
      16     1 Ti  22    6.932336   11.559576    1.488619     12.00      47.8670
      17     1 Ti  22    9.245653    9.245909    0.000888     12.00      47.8670
      18     1 Ti  22   11.556824   11.558355    1.488142     12.00      47.8670
      19     1 Ti  22   -0.000655    0.001267    2.976642     12.00      47.8670
      20     1 Ti  22    2.315110    2.307394    4.466520     12.00      47.8670
      21     1 Ti  22    4.631504    0.008499    2.977716     12.00      47.8670
      22     1 Ti  22    6.934657    2.311646    4.494101     12.00      47.8670
      23     1 Ti  22    9.246073    0.000294    2.979616     12.00      47.8670
      24     1 Ti  22   11.554746    2.316448    4.466403     12.00      47.8670
      25     1 Ti  22    0.001091    4.622138    2.976616     12.00      47.8670
      26     1 Ti  22    2.313498    6.932990    4.466041     12.00      47.8670
      27     1 Ti  22    4.623298    4.623068    2.979616     12.00      47.8670
      28     1 Ti  22    6.939451    6.931746    4.466402     12.00      47.8670
      29     1 Ti  22    9.237713    4.614711    2.977740     12.00      47.8670
      30     1 Ti  22   11.554411    6.931391    4.469104     12.00      47.8670
      31     1 Ti  22    0.000088    9.246085    2.977415     12.00      47.8670
      32     1 Ti  22    2.314786   11.560785    4.469104     12.00      47.8670
      33     1 Ti  22    4.624266    9.245340    2.976642     12.00      47.8670
      34     1 Ti  22    6.930410   11.561086    4.466518     12.00      47.8670
      35     1 Ti  22    9.245146    9.247086    2.976615     12.00      47.8670
      36     1 Ti  22   11.556001   11.559495    4.466040     12.00      47.8670
      37     1 Ti  22   -0.000169    0.000716    5.958080     12.00      47.8670
      38     1 Ti  22    2.312732    2.311106    7.453174     12.00      47.8670
      39     1 Ti  22    4.635935    0.012901    5.958626     12.00      47.8670
      40     1 Ti  22    6.934871    2.311856    7.461294     12.00      47.8670
      41     1 Ti  22    9.243984    0.004131    5.963999     12.00      47.8670
      42     1 Ti  22   11.558391    2.314053    7.453158     12.00      47.8670
      43     1 Ti  22    0.001932    4.624068    5.958174     12.00      47.8670
      44     1 Ti  22    2.313599    6.934803    7.453171     12.00      47.8670
      45     1 Ti  22    4.627139    4.620976    5.963998     12.00      47.8670
      46     1 Ti  22    6.937047    6.935388    7.453157     12.00      47.8670
      47     1 Ti  22    9.233512    4.610512    5.958623     12.00      47.8670
      48     1 Ti  22   11.550707    6.927674    7.454200     12.00      47.8670
      49     1 Ti  22    0.000136    9.246129    5.959389     12.00      47.8670
      50     1 Ti  22    2.318577   11.564576    7.454199     12.00      47.8670
      51     1 Ti  22    4.623722    9.245836    5.958080     12.00      47.8670
      52     1 Ti  22    6.934157   11.558699    7.453173     12.00      47.8670
      53     1 Ti  22    9.247090    9.247903    5.958171     12.00      47.8670
      54     1 Ti  22   11.557799   11.559576    7.453171     12.00      47.8670
      55     1 Ti  22    0.000404   -0.000295    8.948568     12.00      47.8670
      56     1 Ti  22    2.313806    2.308523   10.441134     12.00      47.8670
      57     1 Ti  22    4.637414    0.014371    8.947853     12.00      47.8670
      58     1 Ti  22    6.934758    2.311744   10.413322     12.00      47.8670
      59     1 Ti  22    9.242539    0.005969    8.945272     12.00      47.8670
      60     1 Ti  22   11.556587    2.315883   10.441229     12.00      47.8670
      61     1 Ti  22    0.001773    4.625482    8.948518     12.00      47.8670
      62     1 Ti  22    2.313474    6.933633   10.441407     12.00      47.8670
      63     1 Ti  22    4.628976    4.619529    8.945272     12.00      47.8670
      64     1 Ti  22    6.938883    6.933586   10.441230     12.00      47.8670
      65     1 Ti  22    9.232115    4.609115    8.947852     12.00      47.8670
      66     1 Ti  22   11.553124    6.930095   10.439100     12.00      47.8670
      67     1 Ti  22    0.000137    9.246129    8.948026     12.00      47.8670
      68     1 Ti  22    2.316114   11.562114   10.439104     12.00      47.8670
      69     1 Ti  22    4.622714    9.246413    8.948567     12.00      47.8670
      70     1 Ti  22    6.931552   11.559774   10.441135     12.00      47.8670
      71     1 Ti  22    9.248508    9.247735    8.948520     12.00      47.8670
      72     1 Ti  22   11.556642   11.559467   10.441409     12.00      47.8670
      73     1 Ti  22   -0.000905    0.001064   11.932002     12.00      47.8670
      74     1 Ti  22    2.314179    2.308708   13.420088     12.00      47.8670
      75     1 Ti  22    4.633162    0.010148   11.930515     12.00      47.8670
      76     1 Ti  22    6.934619    2.311611   13.397590     12.00      47.8670
      77     1 Ti  22    9.245755    0.001215   11.926707     12.00      47.8670
      78     1 Ti  22   11.555051    2.314490   13.420216     12.00      47.8670
      79     1 Ti  22    0.001826    4.622850   11.931994     12.00      47.8670
      80     1 Ti  22    2.312796    6.933558   13.420490     12.00      47.8670
      81     1 Ti  22    4.624220    4.622747   11.926707     12.00      47.8670
      82     1 Ti  22    6.937492    6.932049   13.420217     12.00      47.8670
      83     1 Ti  22    9.236163    4.613160   11.930532     12.00      47.8670
      84     1 Ti  22   11.554226    6.931214   13.418555     12.00      47.8670
      85     1 Ti  22    0.000098    9.246093   11.930591     12.00      47.8670
      86     1 Ti  22    2.314912   11.560912   13.418541     12.00      47.8670
      87     1 Ti  22    4.624063    9.245092   11.932003     12.00      47.8670
      88     1 Ti  22    6.931715   11.560171   13.420089     12.00      47.8670
      89     1 Ti  22    9.245864    9.247813   11.931997     12.00      47.8670
      90     1 Ti  22   11.556563   11.558792   13.420490     12.00      47.8670
      91     2 O    8    1.408345    1.409848   -0.000056      6.00      15.9994
      92     2 O    8    3.212767    3.213195   -0.000322      6.00      15.9994
      93     2 O    8    0.902563    3.720974    1.486480      6.00      15.9994
      94     2 O    8    3.719023    0.902548    1.485891      6.00      15.9994
      95     2 O    8    6.030426    1.407425    0.002389      6.00      15.9994
      96     2 O    8    7.838670    3.215669    0.002399      6.00      15.9994
      97     2 O    8    5.522854    3.723202    1.486061      6.00      15.9994
      98     2 O    8    8.346203    0.899853    1.486061      6.00      15.9994
      99     2 O    8   10.656297    1.409872   -0.000333      6.00      15.9994
     100     2 O    8   12.460740    3.213207   -0.000046      6.00      15.9994
     101     2 O    8   10.150048    3.720523    1.485894      6.00      15.9994
     102     2 O    8   12.966517    0.902099    1.486456      6.00      15.9994
     103     2 O    8    1.409549    6.032292   -0.000275      6.00      15.9994
     104     2 O    8    3.213772    7.836530   -0.000264      6.00      15.9994
     105     2 O    8    0.902713    8.343328    1.486461      6.00      15.9994
     106     2 O    8    3.719766    5.526305    1.486181      6.00      15.9994
     107     2 O    8    6.032872    6.033296   -0.000334      6.00      15.9994
     108     2 O    8    7.836207    7.837738   -0.000046      6.00      15.9994
     109     2 O    8    5.525100    8.343516    1.486456      6.00      15.9994
     110     2 O    8    8.343523    5.527047    1.485894      6.00      15.9994
     111     2 O    8   10.656193    6.033192    0.000100      6.00      15.9994
     112     2 O    8   12.460090    7.837089   -0.000265      6.00      15.9994
     113     2 O    8   10.146725    8.345200    1.486492      6.00      15.9994
     114     2 O    8   12.968202    5.523723    1.486492      6.00      15.9994
     115     2 O    8    1.408953   10.654953   -0.000270      6.00      15.9994
     116     2 O    8    3.212870   12.458870    0.000091      6.00      15.9994
     117     2 O    8    0.900874   12.968347    1.486475      6.00      15.9994
     118     2 O    8    3.722348   10.146873    1.486475      6.00      15.9994
     119     2 O    8    6.032850   10.654343   -0.000056      6.00      15.9994
     120     2 O    8    7.836196   12.458765   -0.000322      6.00      15.9994
     121     2 O    8    5.525550   12.965021    1.485891      6.00      15.9994
     122     2 O    8    8.343976   10.148562    1.486480      6.00      15.9994
     123     2 O    8   10.655293   10.655548   -0.000275      6.00      15.9994
     124     2 O    8   12.459531   12.459772   -0.000264      6.00      15.9994
     125     2 O    8   10.149306   12.965765    1.486181      6.00      15.9994
     126     2 O    8   12.966329   10.148712    1.486461      6.00      15.9994
     127     2 O    8    1.407841    1.410120    2.973018      6.00      15.9994
     128     2 O    8    3.212292    3.213081    2.973801      6.00      15.9994
     129     2 O    8    0.901779    3.720844    4.463794      6.00      15.9994
     130     2 O    8    3.712474    0.899433    4.456890      6.00      15.9994
     131     2 O    8    6.029829    1.406826    2.966432      6.00      15.9994
     132     2 O    8    7.839306    3.216305    2.966442      6.00      15.9994
     133     2 O    8    5.521064    3.725072    4.460148      6.00      15.9994
     134     2 O    8    8.348077    0.898062    4.460145      6.00      15.9994
     135     2 O    8   10.656811    1.410016    2.973865      6.00      15.9994
     136     2 O    8   12.461317    3.213002    2.972980      6.00      15.9994
     137     2 O    8   10.156924    3.723821    4.456838      6.00      15.9994
     138     2 O    8   12.967517    0.902477    4.463655      6.00      15.9994
     139     2 O    8    1.409509    6.032334    2.973945      6.00      15.9994
     140     2 O    8    3.213717    7.836532    2.973984      6.00      15.9994
     141     2 O    8    0.902527    8.343463    4.462905      6.00      15.9994
     142     2 O    8    3.718550    5.527542    4.461269      6.00      15.9994
     143     2 O    8    6.033017    6.033810    2.973866      6.00      15.9994
     144     2 O    8    7.836003    7.838315    2.972980      6.00      15.9994
     145     2 O    8    5.525479    8.344517    4.463655      6.00      15.9994
     146     2 O    8    8.346821    5.533922    4.456839      6.00      15.9994
     147     2 O    8   10.656886    6.033884    2.972681      6.00      15.9994
     148     2 O    8   12.460203    7.837201    2.973608      6.00      15.9994
     149     2 O    8   10.146520    8.345542    4.463484      6.00      15.9994
     150     2 O    8   12.968545    5.523518    4.463485      6.00      15.9994
     151     2 O    8    1.408835   10.654835    2.973598      6.00      15.9994
     152     2 O    8    3.212215   12.458215    2.972644      6.00      15.9994
     153     2 O    8    0.900645   12.968645    4.463326      6.00      15.9994
     154     2 O    8    3.722646   10.146646    4.463327      6.00      15.9994
     155     2 O    8    6.033121   10.653839    2.973017      6.00      15.9994
     156     2 O    8    7.836082   12.458290    2.973802      6.00      15.9994
     157     2 O    8    5.522432   12.958464    4.456889      6.00      15.9994
     158     2 O    8    8.343844   10.147775    4.463794      6.00      15.9994
     159     2 O    8   10.655336   10.655507    2.973944      6.00      15.9994
     160     2 O    8   12.459533   12.459717    2.973984      6.00      15.9994
     161     2 O    8   10.150546   12.964550    4.461268      6.00      15.9994
     162     2 O    8   12.966466   10.148526    4.462904      6.00      15.9994
     163     2 O    8    1.408236    1.409764    5.956920      6.00      15.9994
     164     2 O    8    3.212200    3.212756    5.952973      6.00      15.9994
     165     2 O    8    0.903331    3.721144    7.452461      6.00      15.9994
     166     2 O    8    3.718972    0.903355    7.446791      6.00      15.9994
     167     2 O    8    6.007055    1.384027    5.897811      6.00      15.9994
     168     2 O    8    7.862487    3.239478    5.897567      6.00      15.9994
     169     2 O    8    5.508931    3.738121    7.448282      6.00      15.9994
     170     2 O    8    8.361129    0.885922    7.448280      6.00      15.9994
     171     2 O    8   10.657071    1.410404    5.952598      6.00      15.9994
     172     2 O    8   12.461008    3.213403    5.957295      6.00      15.9994
     173     2 O    8   10.150352    3.719915    7.446733      6.00      15.9994
     174     2 O    8   12.966075    0.902074    7.452271      6.00      15.9994
     175     2 O    8    1.409079    6.032648    5.955391      6.00      15.9994
     176     2 O    8    3.213546    7.837080    5.954832      6.00      15.9994
     177     2 O    8    0.902715    8.343716    7.451755      6.00      15.9994
     178     2 O    8    3.714705    5.532061    7.449987      6.00      15.9994
     179     2 O    8    6.033404    6.034069    5.952596      6.00      15.9994
     180     2 O    8    7.836405    7.838006    5.957298      6.00      15.9994
     181     2 O    8    5.525072    8.343071    7.452270      6.00      15.9994
     182     2 O    8    8.342914    5.527348    7.446734      6.00      15.9994
     183     2 O    8   10.659514    6.036511    5.953301      6.00      15.9994
     184     2 O    8   12.461088    7.838084    5.954239      6.00      15.9994
     185     2 O    8   10.146988    8.345321    7.452096      6.00      15.9994
     186     2 O    8   12.968325    5.523983    7.452096      6.00      15.9994
     187     2 O    8    1.408046   10.654046    5.954025      6.00      15.9994
     188     2 O    8    3.209657   12.455656    5.953303      6.00      15.9994
     189     2 O    8    0.900884   12.968242    7.451934      6.00      15.9994
     190     2 O    8    3.722242   10.146885    7.451933      6.00      15.9994
     191     2 O    8    6.032768   10.654229    5.956927      6.00      15.9994
     192     2 O    8    7.835761   12.458196    5.952967      6.00      15.9994
     193     2 O    8    5.526360   12.964965    7.446790      6.00      15.9994
     194     2 O    8    8.344151   10.149330    7.452458      6.00      15.9994
     195     2 O    8   10.655652   10.655075    5.955387      6.00      15.9994
     196     2 O    8   12.460081   12.459545    5.954833      6.00      15.9994
     197     2 O    8   10.155062   12.960698    7.449985      6.00      15.9994
     198     2 O    8   12.966716   10.148711    7.451756      6.00      15.9994
     199     2 O    8    1.409115    1.409416    8.947620      6.00      15.9994
     200     2 O    8    3.212785    3.212470    8.949022      6.00      15.9994
     201     2 O    8    0.902133    3.720769   10.441595      6.00      15.9994
     202     2 O    8    3.714211    0.900176   10.446103      6.00      15.9994
     203     2 O    8    5.997220    1.374181    8.974367      6.00      15.9994
     204     2 O    8    7.872468    3.249456    8.974506      6.00      15.9994
     205     2 O    8    5.515847    3.730591   10.442753      6.00      15.9994
     206     2 O    8    8.353599    0.892843   10.442755      6.00      15.9994
     207     2 O    8   10.656550    1.410722    8.949025      6.00      15.9994
     208     2 O    8   12.460130    3.213737    8.947213      6.00      15.9994
     209     2 O    8   10.155248    3.723114   10.446088      6.00      15.9994
     210     2 O    8   12.967231    0.902615   10.441611      6.00      15.9994
     211     2 O    8    1.408966    6.032757    8.949330      6.00      15.9994
     212     2 O    8    3.213493    7.837268    8.949716      6.00      15.9994
     213     2 O    8    0.902445    8.343625   10.442486      6.00      15.9994
     214     2 O    8    3.717166    5.529162   10.442734      6.00      15.9994
     215     2 O    8    6.033723    6.033548    8.949026      6.00      15.9994
     216     2 O    8    7.836740    7.837128    8.947208      6.00      15.9994
     217     2 O    8    5.525616    8.344230   10.441610      6.00      15.9994
     218     2 O    8    8.346114    5.532246   10.446087      6.00      15.9994
     219     2 O    8   10.660009    6.037006    8.948334      6.00      15.9994
     220     2 O    8   12.461264    7.838260    8.949726      6.00      15.9994
     221     2 O    8   10.146458    8.345410   10.442027      6.00      15.9994
     222     2 O    8   12.968413    5.523456   10.442028      6.00      15.9994
     223     2 O    8    1.407895   10.653894    8.949765      6.00      15.9994
     224     2 O    8    3.209169   12.455166    8.948258      6.00      15.9994
     225     2 O    8    0.900804   12.968750   10.442067      6.00      15.9994
     226     2 O    8    3.722752   10.146804   10.442065      6.00      15.9994
     227     2 O    8    6.032421   10.655108    8.947610      6.00      15.9994
     228     2 O    8    7.835475   12.458779    8.949022      6.00      15.9994
     229     2 O    8    5.523177   12.960197   10.446103      6.00      15.9994
     230     2 O    8    8.343770   10.148130   10.441594      6.00      15.9994
     231     2 O    8   10.655761   10.654961    8.949331      6.00      15.9994
     232     2 O    8   12.460269   12.459492    8.949716      6.00      15.9994
     233     2 O    8   10.152166   12.963163   10.442734      6.00      15.9994
     234     2 O    8   12.966627   10.148444   10.442486      6.00      15.9994
     235     2 O    8    1.408215    1.410098   11.932188      6.00      15.9994
     236     2 O    8    3.212413    3.212872   11.932123      6.00      15.9994
     237     2 O    8    0.902362    3.720870   13.419736      6.00      15.9994
     238     2 O    8    3.716608    0.901370   13.422326      6.00      15.9994
     239     2 O    8    6.020221    1.397205   11.959605      6.00      15.9994
     240     2 O    8    7.849097    3.226091   11.959646      6.00      15.9994
     241     2 O    8    5.522311    3.723792   13.420690      6.00      15.9994
     242     2 O    8    8.346794    0.899309   13.420691      6.00      15.9994
     243     2 O    8   10.656762    1.410285   11.932064      6.00      15.9994
     244     2 O    8   12.460977    3.213049   11.932169      6.00      15.9994
     245     2 O    8   10.152532    3.721747   13.422329      6.00      15.9994
     246     2 O    8   12.966762    0.902243   13.419738      6.00      15.9994
     247     2 O    8    1.409437    6.032391   11.932115      6.00      15.9994
     248     2 O    8    3.213715    7.836675   11.932090      6.00      15.9994
     249     2 O    8    0.902693    8.343367   13.419975      6.00      15.9994
     250     2 O    8    3.719493    5.526630   13.420093      6.00      15.9994
     251     2 O    8    6.033286    6.033761   11.932062      6.00      15.9994
     252     2 O    8    7.836050    7.837975   11.932168      6.00      15.9994
     253     2 O    8    5.525244    8.343761   13.419738      6.00      15.9994
     254     2 O    8    8.344747    5.529531   13.422329      6.00      15.9994
     255     2 O    8   10.657888    6.034886   11.933271      6.00      15.9994
     256     2 O    8   12.460367    7.837365   11.932208      6.00      15.9994
     257     2 O    8   10.146673    8.345232   13.419832      6.00      15.9994
     258     2 O    8   12.968233    5.523671   13.419832      6.00      15.9994
     259     2 O    8    1.408696   10.654695   11.932188      6.00      15.9994
     260     2 O    8    3.211228   12.457227   11.933273      6.00      15.9994
     261     2 O    8    0.900862   12.968423   13.419826      6.00      15.9994
     262     2 O    8    3.722423   10.146862   13.419825      6.00      15.9994
     263     2 O    8    6.033100   10.654211   11.932187      6.00      15.9994
     264     2 O    8    7.835874   12.458409   11.932121      6.00      15.9994
     265     2 O    8    5.524371   12.962604   13.422327      6.00      15.9994
     266     2 O    8    8.343872   10.148361   13.419736      6.00      15.9994
     267     2 O    8   10.655393   10.655435   11.932115      6.00      15.9994
     268     2 O    8   12.459676   12.459714   11.932091      6.00      15.9994
     269     2 O    8   10.149632   12.965491   13.420093      6.00      15.9994
     270     2 O    8   12.966368   10.148692   13.419975      6.00      15.9994




 SCF PARAMETERS         Density guess:                                   RESTART
                        --------------------------------------------------------
                        max_scf:                                             500
                        max_scf_history:                                       0
                        max_diis:                                              4
                        --------------------------------------------------------
                        eps_scf:                                        1.00E-05
                        eps_scf_history:                                0.00E+00
                        eps_diis:                                       5.00E-01
                        eps_eigval:                                     1.00E-05
                        --------------------------------------------------------
                        level_shift [a.u.]:                                 0.00
                        --------------------------------------------------------
                        Mixing method:                            BROYDEN_MIXING
                                                charge density mixing in g-space
                        --------------------------------------------------------
                        Outer loop SCF in use 
                        No variables optimised in outer loop
                        eps_scf                                         1.00E-05
                        max_scf                                              500
                        No outer loop optimization
                        step_size                                       5.00E-01

 PW_GRID| Information for grid number                                          1
 PW_GRID| Grid distributed over                                    40 processors
 PW_GRID| Real space group dimensions                                    40    1
 PW_GRID| the grid is blocked:                                                NO
 PW_GRID| Cutoff [a.u.]                                                    325.0
 PW_GRID| spherical cutoff:                                                   NO
 PW_GRID|   Bounds   1           -108     107                Points:         216
 PW_GRID|   Bounds   2           -108     107                Points:         216
 PW_GRID|   Bounds   3           -115     115                Points:         231
 PW_GRID| Volume element (a.u.^3)  0.1795E-02     Volume (a.u.^3)     19349.8300
 PW_GRID| Grid span                                                    FULLSPACE
 PW_GRID|   Distribution                         Average         Max         Min
 PW_GRID|   G-Vectors                           269438.4      269568      269352
 PW_GRID|   G-Rays                                1247.4        1248        1247
 PW_GRID|   Real Space Points                   269438.4      299376      249480

 PW_GRID| Information for grid number                                          2
 PW_GRID| Grid distributed over                                    40 processors
 PW_GRID| Real space group dimensions                                    40    1
 PW_GRID| the grid is blocked:                                                NO
 PW_GRID| Cutoff [a.u.]                                                    108.3
 PW_GRID| spherical cutoff:                                                   NO
 PW_GRID|   Bounds   1            -63      62                Points:         126
 PW_GRID|   Bounds   2            -63      62                Points:         126
 PW_GRID|   Bounds   3            -66      65                Points:         132
 PW_GRID| Volume element (a.u.^3)  0.9233E-02     Volume (a.u.^3)     19349.8300
 PW_GRID| Grid span                                                    FULLSPACE
 PW_GRID|   Distribution                         Average         Max         Min
 PW_GRID|   G-Vectors                            52390.8       52794       52290
 PW_GRID|   G-Rays                                 415.8         419         415
 PW_GRID|   Real Space Points                    52390.8       66528       49896

 PW_GRID| Information for grid number                                          3
 PW_GRID| Grid distributed over                                    40 processors
 PW_GRID| Real space group dimensions                                    40    1
 PW_GRID| the grid is blocked:                                                NO
 PW_GRID| Cutoff [a.u.]                                                     36.1
 PW_GRID| spherical cutoff:                                                   NO
 PW_GRID|   Bounds   1            -36      35                Points:          72
 PW_GRID|   Bounds   2            -36      35                Points:          72
 PW_GRID|   Bounds   3            -38      38                Points:          77
 PW_GRID| Volume element (a.u.^3)  0.4848E-01     Volume (a.u.^3)     19349.8300
 PW_GRID| Grid span                                                    FULLSPACE
 PW_GRID|   Distribution                         Average         Max         Min
 PW_GRID|   G-Vectors                             9979.2       10008        9936
 PW_GRID|   G-Rays                                 138.6         139         138
 PW_GRID|   Real Space Points                     9979.2       11088        5544

 PW_GRID| Information for grid number                                          4
 PW_GRID| Grid distributed over                                    40 processors
 PW_GRID| Real space group dimensions                                    40    1
 PW_GRID| the grid is blocked:                                                NO
 PW_GRID| Cutoff [a.u.]                                                     12.0
 PW_GRID| spherical cutoff:                                                   NO
 PW_GRID|   Bounds   1            -21      20                Points:          42
 PW_GRID|   Bounds   2            -21      20                Points:          42
 PW_GRID|   Bounds   3            -22      21                Points:          44
 PW_GRID| Volume element (a.u.^3)  0.2493         Volume (a.u.^3)     19349.8300
 PW_GRID| Grid span                                                    FULLSPACE
 PW_GRID|   Distribution                         Average         Max         Min
 PW_GRID|   G-Vectors                             1940.4        2058        1848
 PW_GRID|   G-Rays                                  46.2          49          44
 PW_GRID|   Real Space Points                     1940.4        3696        1848

 PW_GRID| Information for grid number                                          5
 PW_GRID| Grid distributed over                                    40 processors
 PW_GRID| Real space group dimensions                                     5    8
 PW_GRID| the grid is blocked:                                                NO
 PW_GRID| Cutoff [a.u.]                                                      4.0
 PW_GRID| spherical cutoff:                                                   NO
 PW_GRID|   Bounds   1            -12      11                Points:          24
 PW_GRID|   Bounds   2            -12      11                Points:          24
 PW_GRID|   Bounds   3            -12      12                Points:          25
 PW_GRID| Volume element (a.u.^3)   1.344         Volume (a.u.^3)     19349.8300
 PW_GRID| Grid span                                                    FULLSPACE
 PW_GRID|   Distribution                         Average         Max         Min
 PW_GRID|   G-Vectors                              360.0         408         336
 PW_GRID|   G-Rays                                  15.0          17          14
 PW_GRID|   Real Space Points                      360.0         375         300

 PW_GRID| Information for grid number                                          6
 PW_GRID| Grid distributed over                                    40 processors
 PW_GRID| Real space group dimensions                                     5    8
 PW_GRID| the grid is blocked:                                                NO
 PW_GRID| Cutoff [a.u.]                                                      1.3
 PW_GRID| spherical cutoff:                                                   NO
 PW_GRID|   Bounds   1             -7       6                Points:          14
 PW_GRID|   Bounds   2             -7       6                Points:          14
 PW_GRID|   Bounds   3             -7       7                Points:          15
 PW_GRID| Volume element (a.u.^3)   6.582         Volume (a.u.^3)     19349.8300
 PW_GRID| Grid span                                                    FULLSPACE
 PW_GRID|   Distribution                         Average         Max         Min
 PW_GRID|   G-Vectors                               73.5          98          56
 PW_GRID|   G-Rays                                   5.2           7           4
 PW_GRID|   Real Space Points                       73.5          90          30

 PW_GRID| Information for grid number                                          7
 PW_GRID| Grid distributed over                                    40 processors
 PW_GRID| Real space group dimensions                                     5    8
 PW_GRID| the grid is blocked:                                                NO
 PW_GRID| Cutoff [a.u.]                                                      0.4
 PW_GRID| spherical cutoff:                                                   NO
 PW_GRID|   Bounds   1             -3       3                Points:           7
 PW_GRID|   Bounds   2             -3       3                Points:           7
 PW_GRID|   Bounds   3             -4       4                Points:           9
 PW_GRID| Volume element (a.u.^3)   43.88         Volume (a.u.^3)     19349.8300
 PW_GRID| Grid span                                                    FULLSPACE
 PW_GRID|   Distribution                         Average         Max         Min
 PW_GRID|   G-Vectors                               11.0          28           0
 PW_GRID|   G-Rays                                   1.6           4           0
 PW_GRID|   Real Space Points                       11.0          18           0

 PW_GRID| Information for grid number                                          8
 PW_GRID| Grid distributed over                                    40 processors
 PW_GRID| Real space group dimensions                                     5    8
 PW_GRID| the grid is blocked:                                                NO
 PW_GRID| Cutoff [a.u.]                                                      0.1
 PW_GRID| spherical cutoff:                                                   NO
 PW_GRID|   Bounds   1             -2       2                Points:           5
 PW_GRID|   Bounds   2             -2       2                Points:           5
 PW_GRID|   Bounds   3             -2       2                Points:           5
 PW_GRID| Volume element (a.u.^3)   154.8         Volume (a.u.^3)     19349.8300
 PW_GRID| Grid span                                                    FULLSPACE
 PW_GRID|   Distribution                         Average         Max         Min
 PW_GRID|   G-Vectors                                3.1          10           0
 PW_GRID|   G-Rays                                   0.6           2           0
 PW_GRID|   Real Space Points                        3.1           5           0

 PW_GRID| Information for grid number                                          9
 PW_GRID| Grid distributed over                                    40 processors
 PW_GRID| Real space group dimensions                                     5    8
 PW_GRID| the grid is blocked:                                                NO
 PW_GRID| Cutoff [a.u.]                                                      0.0
 PW_GRID| spherical cutoff:                                                   NO
 PW_GRID|   Bounds   1             -1       1                Points:           3
 PW_GRID|   Bounds   2             -1       1                Points:           3
 PW_GRID|   Bounds   3             -1       1                Points:           3
 PW_GRID| Volume element (a.u.^3)   716.7         Volume (a.u.^3)     19349.8300
 PW_GRID| Grid span                                                    FULLSPACE
 PW_GRID|   Distribution                         Average         Max         Min
 PW_GRID|   G-Vectors                                0.7           3           0
 PW_GRID|   G-Rays                                   0.2           1           0
 PW_GRID|   Real Space Points                        0.7           3           0

 PW_GRID| Information for grid number                                         10
 PW_GRID| Grid distributed over                                    40 processors
 PW_GRID| Real space group dimensions                                     5    8
 PW_GRID| the grid is blocked:                                                NO
 PW_GRID| Cutoff [a.u.]                                                      0.0
 PW_GRID| spherical cutoff:                                                   NO
 PW_GRID|   Bounds   1              0       0                Points:           1
 PW_GRID|   Bounds   2              0       0                Points:           1
 PW_GRID|   Bounds   3              0       0                Points:           1
 PW_GRID| Volume element (a.u.^3)  0.1935E+05     Volume (a.u.^3)     19349.8300
 PW_GRID| Grid span                                                    FULLSPACE
 PW_GRID|   Distribution                         Average         Max         Min
 PW_GRID|   G-Vectors                                0.0           1           0
 PW_GRID|   G-Rays                                   0.0           1           0
 PW_GRID|   Real Space Points                        0.0           1           0

 POISSON| Solver                                                        PERIODIC
 POISSON| Periodicity                                                        XYZ

 RS_GRID| Information for grid number                                          1
 RS_GRID|   Bounds   1           -108     107                Points:         216
 RS_GRID|   Bounds   2           -108     107                Points:         216
 RS_GRID|   Bounds   3           -115     115                Points:         231
 RS_GRID| Real space distribution over                                  5 groups
 RS_GRID| Real space distribution along direction                              2
 RS_GRID| Border size                                                         27
 RS_GRID| Real space distribution over                                  8 groups
 RS_GRID| Real space distribution along direction                              3
 RS_GRID| Border size                                                         27
 RS_GRID|   Distribution                         Average         Max         Min
 RS_GRID|   Planes                                  97.2          98          97
 RS_GRID|   Distribution                         Average         Max         Min
 RS_GRID|   Planes                                  82.9          83          82

 RS_GRID| Information for grid number                                          2
 RS_GRID|   Bounds   1            -63      62                Points:         126
 RS_GRID|   Bounds   2            -63      62                Points:         126
 RS_GRID|   Bounds   3            -66      65                Points:         132
 RS_GRID| Real space distribution over                                  5 groups
 RS_GRID| Real space distribution along direction                              2
 RS_GRID| Border size                                                         26
 RS_GRID| Real space distribution over                                  8 groups
 RS_GRID| Real space distribution along direction                              3
 RS_GRID| Border size                                                         26
 RS_GRID|   Distribution                         Average         Max         Min
 RS_GRID|   Planes                                  77.2          78          77
 RS_GRID|   Distribution                         Average         Max         Min
 RS_GRID|   Planes                                  68.5          69          68

 RS_GRID| Information for grid number                                          3
 RS_GRID|   Bounds   1            -36      35                Points:          72
 RS_GRID|   Bounds   2            -36      35                Points:          72
 RS_GRID|   Bounds   3            -38      38                Points:          77
 RS_GRID| Real space fully replicated
 RS_GRID| Group size                                                           1

 RS_GRID| Information for grid number                                          4
 RS_GRID|   Bounds   1            -21      20                Points:          42
 RS_GRID|   Bounds   2            -21      20                Points:          42
 RS_GRID|   Bounds   3            -22      21                Points:          44
 RS_GRID| Real space fully replicated
 RS_GRID| Group size                                                           1

 RS_GRID| Information for grid number                                          5
 RS_GRID|   Bounds   1            -12      11                Points:          24
 RS_GRID|   Bounds   2            -12      11                Points:          24
 RS_GRID|   Bounds   3            -12      12                Points:          25
 RS_GRID| Real space fully replicated
 RS_GRID| Group size                                                           1

 RS_GRID| Information for grid number                                          6
 RS_GRID|   Bounds   1             -7       6                Points:          14
 RS_GRID|   Bounds   2             -7       6                Points:          14
 RS_GRID|   Bounds   3             -7       7                Points:          15
 RS_GRID| Real space fully replicated
 RS_GRID| Group size                                                           1

 RS_GRID| Information for grid number                                          7
 RS_GRID|   Bounds   1             -3       3                Points:           7
 RS_GRID|   Bounds   2             -3       3                Points:           7
 RS_GRID|   Bounds   3             -4       4                Points:           9
 RS_GRID| Real space fully replicated
 RS_GRID| Group size                                                           1

 RS_GRID| Information for grid number                                          8
 RS_GRID|   Bounds   1             -2       2                Points:           5
 RS_GRID|   Bounds   2             -2       2                Points:           5
 RS_GRID|   Bounds   3             -2       2                Points:           5
 RS_GRID| Real space fully replicated
 RS_GRID| Group size                                                           1

 RS_GRID| Information for grid number                                          9
 RS_GRID|   Bounds   1             -1       1                Points:           3
 RS_GRID|   Bounds   2             -1       1                Points:           3
 RS_GRID|   Bounds   3             -1       1                Points:           3
 RS_GRID| Real space fully replicated
 RS_GRID| Group size                                                           1

 RS_GRID| Information for grid number                                         10
 RS_GRID|   Bounds   1              0       0                Points:           1
 RS_GRID|   Bounds   2              0       0                Points:           1
 RS_GRID|   Bounds   3              0       0                Points:           1
 RS_GRID| Real space fully replicated
 RS_GRID| Group size                                                           1

 Spin 1

 Number of electrons:                                                       1081
 Number of occupied orbitals:                                               1081
 Number of molecular orbitals:                                              1081

 Spin 2

 Number of electrons:                                                       1080
 Number of occupied orbitals:                                               1080
 Number of molecular orbitals:                                              1080

 Number of orbital functions:                                               1620
 Number of independent orbital functions:                                   1620

 Extrapolation method: initial_guess


 SCF WAVEFUNCTION OPTIMIZATION

  Step     Update method      Time    Convergence         Total energy    Change
  ------------------------------------------------------------------------------
     1 NoMix/Diag. 0.40E+00    5.9     0.00898870     -8111.7722867682 -8.11E+03
     2 Broy./Diag. 0.40E+00    9.7     0.00478620     -8111.7685104321  3.78E-03
     3 Broy./Diag. 0.40E+00    9.7     0.00128197     -8111.7741307233 -5.62E-03
     4 Broy./Diag. 0.40E+00    9.7     0.00060858     -8111.7783234989 -4.19E-03
     5 Broy./Diag. 0.40E+00    9.7     0.00021590     -8111.7781243480  1.99E-04
     6 Broy./Diag. 0.40E+00    9.7     0.00010655     -8111.7755226043  2.60E-03
     7 Broy./Diag. 0.40E+00    9.8     0.00009328     -8111.7750578460  4.65E-04
     8 Broy./Diag. 0.40E+00    9.8     0.00005291     -8111.7749993632  5.85E-05
     9 Broy./Diag. 0.40E+00    9.8     0.00002758     -8111.7748389981  1.60E-04
    10 Broy./Diag. 0.40E+00    9.7     0.00001082     -8111.7749776760 -1.39E-04
    11 Broy./Diag. 0.40E+00   10.0     0.00001112     -8111.7750358157 -5.81E-05
    12 Broy./Diag. 0.40E+00    9.8     0.00000494     -8111.7750673172 -3.15E-05

  *** SCF run converged in    12 steps ***


  Electronic density on regular grids:      -2160.9999999994        0.0000000006
  Core density on regular grids:             2159.9999999994       -0.0000000006
  Total charge density on r-space grids:       -1.0000000000
  Total charge density g-space grids:          -1.0000000000

  Overlap energy of the core charge distribution:               0.00000000000199
  Self energy of the core charge distribution:             -17095.63438313942970
  Core Hamiltonian energy:                                   4650.80151246799414
  Hartree energy:                                            5621.22132218391562
  Exchange-correlation energy:                              -1307.30672712505202

  DFT+U energy:                                                19.14320829532172

  Total energy:                                             -8111.77506731724588

  outer SCF iter =    1 RMS gradient =   0.49E-05 energy =      -8111.7750673172
  outer SCF loop converged in   1 iterations or   12 steps


  Integrated absolute spin density  :                               1.0890678331
  Ideal and single determinant S**2 :                    0.750000       0.754741

 !-----------------------------------------------------------------------------!
                     Mulliken Population Analysis

 #  Atom  Element  Kind  Atomic population (alpha,beta) Net charge  Spin moment
       1     Ti       1         5.244782     5.244787     1.510431    -0.000004
       2     Ti       1         5.244711     5.244709     1.510580     0.000002
       3     Ti       1         5.245184     5.245187     1.509629    -0.000003
       4     Ti       1         5.245498     5.244968     1.509534     0.000530
       5     Ti       1         5.244713     5.244716     1.510571    -0.000003
       6     Ti       1         5.244719     5.244716     1.510565     0.000002
       7     Ti       1         5.244776     5.244781     1.510443    -0.000004
       8     Ti       1         5.244824     5.244839     1.510338    -0.000015
       9     Ti       1         5.244713     5.244716     1.510571    -0.000003
      10     Ti       1         5.244719     5.244716     1.510565     0.000002
      11     Ti       1         5.245184     5.245186     1.509630    -0.000003
      12     Ti       1         5.245357     5.245367     1.509275    -0.000010
      13     Ti       1         5.245099     5.245107     1.509794    -0.000009
      14     Ti       1         5.245362     5.245371     1.509267    -0.000010
      15     Ti       1         5.244783     5.244787     1.510431    -0.000004
      16     Ti       1         5.244711     5.244709     1.510580     0.000002
      17     Ti       1         5.244776     5.244781     1.510443    -0.000004
      18     Ti       1         5.244824     5.244839     1.510337    -0.000015
      19     Ti       1         5.244727     5.244732     1.510541    -0.000006
      20     Ti       1         5.244583     5.244596     1.510821    -0.000013
      21     Ti       1         5.244697     5.244893     1.510410    -0.000196
      22     Ti       1         5.243021     5.247185     1.509795    -0.004164
      23     Ti       1         5.244736     5.244756     1.510508    -0.000020
      24     Ti       1         5.244581     5.244594     1.510825    -0.000012
      25     Ti       1         5.244730     5.244736     1.510533    -0.000006
      26     Ti       1         5.244786     5.244765     1.510449     0.000021
      27     Ti       1         5.244736     5.244756     1.510508    -0.000020
      28     Ti       1         5.244581     5.244594     1.510825    -0.000012
      29     Ti       1         5.244699     5.244896     1.510405    -0.000197
      30     Ti       1         5.245411     5.245193     1.509396     0.000218
      31     Ti       1         5.245082     5.245066     1.509852     0.000015
      32     Ti       1         5.245414     5.245196     1.509390     0.000218
      33     Ti       1         5.244727     5.244732     1.510541    -0.000006
      34     Ti       1         5.244583     5.244596     1.510821    -0.000012
      35     Ti       1         5.244730     5.244736     1.510533    -0.000006
      36     Ti       1         5.244786     5.244765     1.510449     0.000021
      37     Ti       1         5.244756     5.244751     1.510493     0.000004
      38     Ti       1         5.244758     5.244795     1.510447    -0.000037
      39     Ti       1         5.247840     5.243897     1.508263     0.003943
      40     Ti       1         5.787230     4.789758     1.423012     0.997472
      41     Ti       1         5.246415     5.245112     1.508473     0.001303
      42     Ti       1         5.244736     5.244774     1.510490    -0.000037
      43     Ti       1         5.244755     5.244750     1.510495     0.000004
      44     Ti       1         5.244774     5.244632     1.510594     0.000142
      45     Ti       1         5.246416     5.245112     1.508472     0.001303
      46     Ti       1         5.244736     5.244774     1.510490    -0.000037
      47     Ti       1         5.247843     5.243903     1.508254     0.003940
      48     Ti       1         5.246621     5.245428     1.507950     0.001193
      49     Ti       1         5.245304     5.245002     1.509693     0.000302
      50     Ti       1         5.246628     5.245435     1.507937     0.001193
      51     Ti       1         5.244756     5.244751     1.510493     0.000004
      52     Ti       1         5.244758     5.244795     1.510448    -0.000037
      53     Ti       1         5.244755     5.244750     1.510495     0.000004
      54     Ti       1         5.244774     5.244632     1.510594     0.000142
      55     Ti       1         5.244827     5.244824     1.510349     0.000003
      56     Ti       1         5.245069     5.245087     1.509844    -0.000018
      57     Ti       1         5.248111     5.243558     1.508331     0.004552
      58     Ti       1         5.244856     5.249514     1.505631    -0.004658
      59     Ti       1         5.246921     5.245599     1.507480     0.001321
      60     Ti       1         5.245064     5.245082     1.509854    -0.000018
      61     Ti       1         5.244826     5.244823     1.510350     0.000003
      62     Ti       1         5.244690     5.244675     1.510636     0.000015
      63     Ti       1         5.246921     5.245600     1.507479     0.001321
      64     Ti       1         5.245064     5.245082     1.509854    -0.000018
      65     Ti       1         5.248108     5.243562     1.508330     0.004546
      66     Ti       1         5.245588     5.245338     1.509074     0.000249
      67     Ti       1         5.245311     5.244997     1.509692     0.000314
      68     Ti       1         5.245596     5.245346     1.509058     0.000249
      69     Ti       1         5.244827     5.244824     1.510349     0.000003
      70     Ti       1         5.245069     5.245087     1.509844    -0.000018
      71     Ti       1         5.244826     5.244823     1.510351     0.000003
      72     Ti       1         5.244690     5.244675     1.510636     0.000015
      73     Ti       1         5.244799     5.244805     1.510395    -0.000006
      74     Ti       1         5.244821     5.244819     1.510360     0.000002
      75     Ti       1         5.244691     5.244820     1.510489    -0.000129
      76     Ti       1         5.245893     5.245277     1.508831     0.000616
      77     Ti       1         5.245192     5.245207     1.509600    -0.000015
      78     Ti       1         5.244826     5.244824     1.510350     0.000002
      79     Ti       1         5.244807     5.244813     1.510380    -0.000006
      80     Ti       1         5.244787     5.244803     1.510410    -0.000016
      81     Ti       1         5.245193     5.245208     1.509600    -0.000015
      82     Ti       1         5.244826     5.244824     1.510350     0.000002
      83     Ti       1         5.244692     5.244821     1.510487    -0.000129
      84     Ti       1         5.245314     5.245319     1.509367    -0.000006
      85     Ti       1         5.245037     5.245020     1.509943     0.000018
      86     Ti       1         5.245319     5.245325     1.509356    -0.000005
      87     Ti       1         5.244799     5.244805     1.510395    -0.000006
      88     Ti       1         5.244821     5.244819     1.510360     0.000002
      89     Ti       1         5.244807     5.244813     1.510381    -0.000006
      90     Ti       1         5.244787     5.244803     1.510410    -0.000016
      91     O        2         3.379707     3.379704    -0.759411     0.000003
      92     O        2         3.379817     3.379820    -0.759637    -0.000002
      93     O        2         3.379761     3.379763    -0.759524    -0.000002
      94     O        2         3.379914     3.379910    -0.759824     0.000003
      95     O        2         3.380834     3.380894    -0.761728    -0.000060
      96     O        2         3.380836     3.380896    -0.761732    -0.000060
      97     O        2         3.379649     3.379693    -0.759342    -0.000044
      98     O        2         3.379649     3.379693    -0.759342    -0.000044
      99     O        2         3.379814     3.379817    -0.759631    -0.000002
     100     O        2         3.379694     3.379691    -0.759385     0.000004
     101     O        2         3.379912     3.379909    -0.759821     0.000003
     102     O        2         3.379767     3.379769    -0.759537    -0.000002
     103     O        2         3.379727     3.379721    -0.759448     0.000006
     104     O        2         3.379720     3.379714    -0.759435     0.000006
     105     O        2         3.379857     3.379858    -0.759714    -0.000001
     106     O        2         3.380217     3.380208    -0.760425     0.000009
     107     O        2         3.379814     3.379817    -0.759631    -0.000002
[...]
       0.23839602       0.23864048       0.23879216       0.23886821
       0.23889880       0.23911244       0.23919675       0.23934505
       0.23937907       0.23961027       0.23965107       0.23974296
       0.24019201       0.24088767       0.24143815       0.24185728
       0.24203478       0.24216565       0.24243186       0.24268605
       0.24281996       0.24285378       0.24327304       0.24396416
       0.24402964       0.24472428       0.24494937       0.24567513
       0.24576521       0.24584966       0.24588500       0.24600261
       0.24617689       0.24629370       0.24652902       0.24666378
       0.24699023       0.24701826       0.24705678       0.24709368
       0.24904613       0.25196861       0.25210316       0.25228181
       0.25234907       0.25245765       0.25266531       0.25268188
       0.25277572       0.25291342       0.25306390       0.25317370
       0.25324181       0.25355255       0.25364421       0.25371692
       0.25442455       0.25442970       0.25478179       0.25493183
       0.25505426       0.25534597       0.25540123       0.25583324
       0.25601109       0.25653718       0.25670601       0.25733458
       0.25776187       0.25803529       0.25819816       0.25993884
       0.26060603       0.26063448       0.26072564       0.26088883
       0.26103924       0.26127682       0.26139542       0.26158093
       0.26175072       0.26193711       0.26197130       0.26209860
       0.26217914       0.26222360       0.26223212       0.26289702
       0.26294931       0.26328870       0.26360516       0.26367928
       0.26408505       0.26423369       0.26425197       0.26439612
       0.26445926       0.26450121       0.26479897       0.26496054
       0.26512675       0.26534700       0.26563537       0.26588203
       0.26694758       0.26713014       0.26715332       0.26743285
       0.26746329       0.26792745       0.26823781       0.26999146
       0.27385152       0.27386176       0.27414973       0.27445482
       0.27447820       0.27451222       0.27463659       0.27483758
       0.27890398       0.27919048       0.27925225       0.27929741
       0.27948789       0.27966038       0.27971645       0.28064271
       0.28093493       0.28099554       0.28099981       0.28127079
       0.28128189       0.28147655       0.28151349       0.28154435
       0.28170773       0.28183161       0.28217264       0.28226415
       0.28260698       0.28265532       0.28266715       0.28282727
       0.28333465       0.28344485       0.28358742       0.28371092
       0.28397141       0.28409845       0.28412282       0.28429891
       0.28459540       0.28460080       0.28477724       0.28507769
       0.28510587       0.28511393       0.28522865       0.28542799
       0.28552953       0.28565641       0.28600701       0.28622378
       0.28626509       0.28634160       0.28654027       0.28655662
       0.28669911       0.28693238       0.28844338       0.28901237
       0.28942404       0.28957148       0.29133573       0.29165675
       0.29221476       0.29354181       0.29391598       0.29412399
       0.29434708       0.29479965       0.29493728       0.29516840
       0.29545373       0.29550782       0.29561313       0.29598450
       0.29696877       0.29716216       0.30020425       0.30036336
       0.30038625       0.30044474       0.30050101       0.30053509
       0.30054708       0.30085394       0.30087391       0.30108264
       0.30124899       0.30149149       0.30191516       0.30203443
       0.30255351       0.30300263       0.30457768       0.30466147
       0.30490989       0.30519285       0.30519644       0.30539304
       0.30554281       0.30624518       0.30938381       0.30972882
       0.30993087       0.31033326       0.31209722       0.31232769
       0.31238069       0.31239601       0.31259945       0.31304723
       0.31324559       0.31363712       0.31435554       0.31611370
       0.31635461       0.31676717       0.31686678       0.32044475
       0.32055426       0.32062040       0.32068325       0.32101435
       0.32107659       0.32129537       0.32165225       0.32569946
       0.32588363       0.32627580       0.32658478       0.32752112
       0.32756882       0.33162236       0.33193544       0.34069263
 Fermi Energy [eV] :    9.270718
  
  Lowest eigenvalues of the unoccupied subspace spin            1
 ---------------------------------------------

  
  Lowest eigenvalues of the unoccupied subspace spin            2
 ---------------------------------------------


 ENERGY| Total FORCE_EVAL ( QS ) energy (a.u.):            -8111.775067317245885


 -------------------------------------------------------------------------------
 -                                                                             -
 -                                DBCSR STATISTICS                             -
 -                                                                             -
 -------------------------------------------------------------------------------
 COUNTER                                    TOTAL       BLAS       SMM       ACC
 flops     4 x    25 x     4             25920000     100.0%      0.0%      0.0%
 flops    10 x    25 x     4             32400000     100.0%      0.0%      0.0%
 flops     4 x    25 x    10             32400000     100.0%      0.0%      0.0%
 flops    10 x    25 x    10             40500000     100.0%      0.0%      0.0%
 flops     4 x    24 x     4             49766400     100.0%      0.0%      0.0%
 flops    10 x    24 x     4             62208000     100.0%      0.0%      0.0%
 flops     4 x    24 x    10             62208000     100.0%      0.0%      0.0%
 flops    10 x    24 x    10             77760000     100.0%      0.0%      0.0%
 flops     4 x     4 x    56            379491840     100.0%      0.0%      0.0%
 flops     4 x     4 x    57            386268480     100.0%      0.0%      0.0%
 flops    10 x     4 x    56            471744000     100.0%      0.0%      0.0%
 flops     4 x    10 x    56            471744000     100.0%      0.0%      0.0%
 flops    10 x     4 x    57            480168000     100.0%      0.0%      0.0%
 flops     4 x    10 x    57            480168000     100.0%      0.0%      0.0%
 flops    10 x    10 x    56            596232000     100.0%      0.0%      0.0%
 flops    10 x    10 x    57            606879000     100.0%      0.0%      0.0%
 flops     4 x     4 x    32           2602229760     100.0%      0.0%      0.0%
 flops    10 x     4 x    32           3234816000     100.0%      0.0%      0.0%
 flops     4 x    10 x    32           3234816000     100.0%      0.0%      0.0%
 flops     4 x    32 x     4           3284582400     100.0%      0.0%      0.0%
 flops    10 x    10 x    32           4088448000     100.0%      0.0%      0.0%
 flops    10 x    32 x     4           4105728000     100.0%      0.0%      0.0%
 flops     4 x    32 x    10           4105728000     100.0%      0.0%      0.0%
 flops    10 x    32 x    10           5132160000     100.0%      0.0%      0.0%
 flops     4 x     4 x    64          11276328960     100.0%      0.0%      0.0%
 flops    10 x     4 x    64          14017536000     100.0%      0.0%      0.0%
 flops     4 x    10 x    64          14017536000     100.0%      0.0%      0.0%
 flops    10 x    10 x    64          17716608000     100.0%      0.0%      0.0%
 flops inhomo. stacks                           0       0.0%      0.0%      0.0%
 flops total                        91.072375E+09     100.0%      0.0%      0.0%
 flops max/rank                      2.448057E+09     100.0%      0.0%      0.0%
 matmuls inhomo. stacks                         0       0.0%      0.0%      0.0%
 matmuls total                           26460000     100.0%      0.0%      0.0%
 number of processed stacks                 96160     100.0%      0.0%      0.0%
 average stack size                                   275.2       0.0       0.0
 marketing flops                   164.465885E+09
 -------------------------------------------------------------------------------
 # multiplications                             29
 max memory usage/rank             419.729408E+06
 # max total images/rank                        5
 # max 3D layers                                1
 # MPI messages exchanged                   73080
 MPI messages size (bytes):
  total size                         7.498436E+09
  min size                          40.960000E+03
  max size                         280.704000E+03
  average size                     102.605852E+03
 MPI breakdown and total messages size (bytes):
             size <=      128                   0                        0
       128 < size <=     8192                   0                        0
      8192 < size <=    32768                   0                        0
     32768 < size <=   131072               57816               4237064640
    131072 < size <=  4194304               15264               3261371040
   4194304 < size <= 16777216                   0                        0
  16777216 < size                               0                        0
 -------------------------------------------------------------------------------

 *** WARNING in dbcsr/mm/dbcsr_mm.F:268 :: Using a non-square number of ***
 *** MPI ranks might lead to poor performance.                          ***
 *** Used ranks: 40                                                     ***
 *** Suggested: 36 81                                                   ***

 -------------------------------------------------------------------------------

 MEMORY| Estimated peak process memory [MiB]                                 403

 -------------------------------------------------------------------------------
 ----                             MULTIGRID INFO                            ----
 -------------------------------------------------------------------------------
 count for grid        1:         884865          cutoff [a.u.]          325.00
 count for grid        2:         501767          cutoff [a.u.]          108.33
 count for grid        3:         797642          cutoff [a.u.]           36.11
 count for grid        4:        1053878          cutoff [a.u.]           12.04
 count for grid        5:         551058          cutoff [a.u.]            4.01
 count for grid        6:              0          cutoff [a.u.]            1.34
 count for grid        7:              0          cutoff [a.u.]            0.45
 count for grid        8:              0          cutoff [a.u.]            0.15
 count for grid        9:              0          cutoff [a.u.]            0.05
 count for grid       10:              0          cutoff [a.u.]            0.02
 total gridlevel count  :        3789210

 -------------------------------------------------------------------------------
 -                                                                             -
 -                         MESSAGE PASSING PERFORMANCE                         -
 -                                                                             -
 -------------------------------------------------------------------------------

 ROUTINE             CALLS      AVE VOLUME [Bytes]
 MP_Group               39
 MP_Bcast             2309                 167764.
 MP_Allreduce          691                   1377.
 MP_Sync               434
 MP_Alltoall          1509                3104732.
 MP_ISendRecv        15600                  15276.
 MP_Wait             23972
 MP_comm_split          24
 MP_ISend             9522                 129091.
 MP_IRecv             9488                 128738.
 MP_Recv                66                 414720.
 MP_Memory            4498
 -------------------------------------------------------------------------------


 -------------------------------------------------------------------------------
 -                                                                             -
 -                           R E F E R E N C E S                               -
 -                                                                             -
 -------------------------------------------------------------------------------
 
 CP2K version 6.1, the CP2K developers group (2018).
 CP2K is freely available from https://www.cp2k.org/ .

 Schuett, Ole; Messmer, Peter; Hutter, Juerg; VandeVondele, Joost. 
 Electronic Structure Calculations on Graphics Processing Units, John Wiley & Sons, Ltd, 173-190 (2016). 
 GPU-Accelerated Sparse Matrix-Matrix Multiplication for Linear Scaling Density Functional Theory.
 http://dx.doi.org/10.1002/9781118670712.ch8


 Borstnik, U; VandeVondele, J; Weber, V; Hutter, J. 
 PARALLEL COMPUTING, 40 (5-6), 47-58 (2014). 
 Sparse matrix multiplication: The distributed block-compressed sparse
 row library.
 http://dx.doi.org/10.1016/j.parco.2014.03.012


 Hutter, J; Iannuzzi, M; Schiffmann, F; VandeVondele, J. 
 WILEY INTERDISCIPLINARY REVIEWS-COMPUTATIONAL MOLECULAR SCIENCE, 4 (1), 15-25 (2014). 
 CP2K: atomistic simulations of condensed matter systems.
 http://dx.doi.org/10.1002/wcms.1159


 VandeVondele, J; Hutter, J. 
 JOURNAL OF CHEMICAL PHYSICS, 127 (11), 114105 (2007). 
 Gaussian basis sets for accurate calculations on molecular systems in
 gas and condensed phases.
 http://dx.doi.org/10.1063/1.2770708


 Krack, M. 
 THEORETICAL CHEMISTRY ACCOUNTS, 114 (1-3), 145-152 (2005). 
 Pseudopotentials for H to Kr optimized for gradient-corrected
 exchange-correlation functionals.
 http://dx.doi.org/10.1007/s00214-005-0655-y


 VandeVondele, J; Krack, M; Mohamed, F; Parrinello, M; Chassaing, T;
 Hutter, J. COMPUTER PHYSICS COMMUNICATIONS, 167 (2), 103-128 (2005). 
 QUICKSTEP: Fast and accurate density functional calculations using a
 mixed Gaussian and plane waves approach.
 http://dx.doi.org/10.1016/j.cpc.2004.12.014


 Frigo, M; Johnson, SG. 
 PROCEEDINGS OF THE IEEE, 93 (2), 216-231 (2005). 
 The design and implementation of FFTW3.
 http://dx.doi.org/10.1109/JPROC.2004.840301


 Hartwigsen, C; Goedecker, S; Hutter, J. 
 PHYSICAL REVIEW B, 58 (7), 3641-3662 (1998). 
 Relativistic separable dual-space Gaussian pseudopotentials from H to Rn.
 http://dx.doi.org/10.1103/PhysRevB.58.3641


 Dudarev, SL; Botton, GA; Savrasov, SY; Humphreys, CJ; Sutton, AP. 
 PHYSICAL REVIEW B, 57 (3), 1505-1509 (1998). 
 Electron-energy-loss spectra and the structural stability of
 nickel oxide: An LSDA+U study.
 http://dx.doi.org/10.1103/PhysRevB.57.1505


 Lippert, G; Hutter, J; Parrinello, M. 
 MOLECULAR PHYSICS, 92 (3), 477-487 (1997). 
 A hybrid Gaussian and plane wave density functional scheme.
 http://dx.doi.org/10.1080/002689797170220


 Dudarev, SL; Manh, DN; Sutton, AP. 
 PHILOSOPHICAL MAGAZINE B, 75 (5), 613-628 (1997). 
 Effect of Mott-Hubbard correlations on the electronic
 structure and structural stability of uranium dioxide.
 http://dx.doi.org/10.1080/13642819708202343


 Perdew, JP; Burke, K; Ernzerhof, M. 
 PHYSICAL REVIEW LETTERS, 77 (18), 3865-3868 (1996). 
 Generalized gradient approximation made simple.
 http://dx.doi.org/10.1103/PhysRevLett.77.3865


 Goedecker, S; Teter, M; Hutter, J. 
 PHYSICAL REVIEW B, 54 (3), 1703-1710 (1996). 
 Separable dual-space Gaussian pseudopotentials.
 http://dx.doi.org/10.1103/PhysRevB.54.1703


 -------------------------------------------------------------------------------
 -                                                                             -
 -                                T I M I N G                                  -
 -                                                                             -
 -------------------------------------------------------------------------------
 SUBROUTINE                       CALLS  ASD         SELF TIME        TOTAL TIME
                                MAXIMUM       AVERAGE  MAXIMUM  AVERAGE  MAXIMUM
 CP2K                                 1  1.0    0.030    0.035  130.753  130.754
 qs_energies                          1  2.0    0.000    0.000  130.458  130.460
 scf_env_do_scf                       1  3.0    0.000    0.000  117.333  117.576
 scf_env_do_scf_inner_loop           12  4.0    0.001    0.001  117.333  117.576
 qs_ks_update_qs_env                 12  5.0    0.001    0.001   59.319   59.352
 rebuild_ks_matrix                   12  6.0    0.000    0.000   59.311   59.343
 qs_ks_build_kohn_sham_matrix        12  7.0    0.127    0.159   59.311   59.343
 qs_rho_update_rho                   13  5.0    0.000    0.000   49.785   49.785
 calculate_rho_elec                  26  6.0   43.946   44.974   49.784   49.785
 sum_up_and_integrate                12  8.0    0.026    0.030   45.561   45.563
 integrate_v_rspace                  24  9.0   40.954   42.086   45.536   45.544
 pw_transfer                        753  9.5    0.033    0.046   15.736   16.284
 fft_wrap_pw1pw2                    729 10.5    0.005    0.007   15.649   16.214
 fft_wrap_pw1pw2_330                279 11.6    0.745    0.922   14.996   15.482
 fft3d_ps                           729 12.5    6.843    7.683   13.099   14.137
 qs_vxc_create                       12  8.0    0.000    0.000   12.658   12.706
 xc_vxc_pw_create                    12  9.0    0.153    0.194   12.658   12.706
 qs_scf_new_mos                      12  5.0    0.000    0.001    9.505    9.584
 eigensolver                         24  6.0    0.001    0.002    8.926    8.932
 qs_energies_init_hamiltonians        1  3.0    0.000    0.000    8.131    8.131
 build_core_hamiltonian_matrix        1  4.0    0.000    0.000    7.131    7.699
 xc_rho_set_and_dset_create          12 10.0    0.073    0.087    6.708    7.222
 mp_alltoall_z22v                   729 14.5    5.296    7.150    5.296    7.150
 cp_fm_syevd                         24  7.0    0.000    0.000    7.094    7.100
 cp_fm_redistribute_end              24  8.0    2.139    7.026    2.152    7.038
 cp_fm_syevd_base                    24  8.0    4.859    6.952    4.859    6.952
 density_rs2pw                       26  7.0    0.002    0.002    5.330    6.856
 rs_pw_transfer                     504  9.4    0.004    0.005    4.604    6.267
 build_core_ppnl                      1  5.0    4.355    4.739    4.355    4.739
 mp_waitany                        4776 11.3    2.508    4.609    2.508    4.609
 init_scf_run                         1  3.0    0.000    0.000    4.442    4.444
 scf_env_initial_rho_setup            1  4.0    0.000    0.000    4.416    4.416
 rs_pw_transfer_RS2PW_330            28  8.9    0.422    0.538    2.423    4.084
 yz_to_x                            201 13.1    0.298    0.338    2.961    4.035
 x_to_yz                            228 13.9    0.622    0.767    3.252    3.822
 potential_pw2rs                     24 10.0    0.004    0.004    3.057    3.066
 rs_distribute_matrix                50  8.4    0.116    0.133    1.663    2.952
 mp_alltoall_d11v                   306  9.2    1.623    2.927    1.623    2.927
 build_core_ppl                       1  5.0    2.580    2.868    2.580    2.868
 xc_functional_eval                  12 11.0    0.000    0.000    2.190    2.709
 pbe_lsd_eval                        12 12.0    2.190    2.708    2.190    2.708
 -------------------------------------------------------------------------------

 The number of warnings for this run is : 1
 
 -------------------------------------------------------------------------------
  **** **** ******  **  PROGRAM ENDED AT                 2019-08-02 13:27:32.920
 ***** ** ***  *** **   PROGRAM RAN ON            cpn-p28-06.cbls.ccr.buffalo.ed
 **    ****   ******    PROGRAM RAN BY                                  pavankum
 ***** **    ** ** **   PROGRAM PROCESS ID                                 22550
  **** **  *******  **  PROGRAM STOPPED IN /projects/academic/mdupuis2/pavan/VAB
                                           _calculation/results_for_paper/7.TiO2
                                           _pbe_plus_U10/point_0.3
