 DBCSR| Multiplication driver                                               BLAS
 DBCSR| Multrec recursion limit                                              512
 DBCSR| Multiplication stack size                                           1000
 DBCSR| Maximum elements for images                                    UNLIMITED
 DBCSR| Multiplicative factor virtual images                                   1
 DBCSR| Multiplication size stacks                                             3
 DBCSR| Number of 3D layers                                               SINGLE
 DBCSR| Use MPI memory allocation                                              T
 DBCSR| Use RMA algorithm                                                      F
 DBCSR| Use Communication thread                                               T
 DBCSR| Communication thread load                                             87


  **** **** ******  **  PROGRAM STARTED AT               2020-04-24 15:41:48.736
 ***** ** ***  *** **   PROGRAM STARTED ON        cpn-u22-12.cbls.ccr.buffalo.ed
 **    ****   ******    PROGRAM STARTED BY                              pavankum
 ***** **    ** ** **   PROGRAM PROCESS ID                                133922
  **** **  *******  **  PROGRAM STARTED IN /projects/academic/mdupuis2/pavan/MOA
                                           /results_for_paper/2.TiO2/DZV/at_szv_
                                           optgeo_lowdin_state0

 CP2K| version string:                                          CP2K version 6.1
 CP2K| source code revision number:                                    svn:18464
 CP2K| cp2kflags: libint fftw3 libxc parallel mpi3 scalapack libderiv_max_am1=5 
 CP2K|            libint_max_am=6
 CP2K| is freely available from                            https://www.cp2k.org/
 CP2K| Program compiled at                          Fri Nov 30 14:17:09 EST 2018
 CP2K| Program compiled on                       srv-p22-12.cbls.ccr.buffalo.edu
 CP2K| Program compiled for                                                local
 CP2K| Data directory path    /projects/academic/mdupuis2/pavan/cp2k/cp2k-6.1/da
 CP2K| Input file name                                                 input.inp

 GLOBAL| Force Environment number                                              1
 GLOBAL| Basis set file name            /projects/academic/mdupuis2/pavan/BASIS_
 GLOBAL| Potential file name            /projects/academic/mdupuis2/pavan/POTENT
 GLOBAL| MM Potential file name                                     MM_POTENTIAL
 GLOBAL| Coordinate file name                                         ./opt0.xyz
 GLOBAL| Method name                                                        CP2K
 GLOBAL| Project name                                                    p_tio2_
 GLOBAL| Preferred FFT library                                             FFTW3
 GLOBAL| Preferred diagonalization lib.                                       SL
 GLOBAL| Run type                                                         ENERGY
 GLOBAL| All-to-all communication in single precision                          F
 GLOBAL| FFTs using library dependent lengths                                  T
 GLOBAL| Global print level                                               MEDIUM
 GLOBAL| Total number of message passing processes                           128
 GLOBAL| Number of threads for this process                                    1
 GLOBAL| This output is from process                                           0
 GLOBAL| CPU model name :  Intel(R) Xeon(R) Gold 6130 CPU @ 2.10GHz

 MEMORY| system memory details [Kb]
 MEMORY|                        rank 0           min           max       average
 MEMORY| MemTotal            790968832     790968816     790968832     790968825
 MEMORY| MemFree             661094280     559228416     661094280     615293411
 MEMORY| Buffers                498536        464920        612484        541960
 MEMORY| Cached              118492232     118492232     220393948     164196109
 MEMORY| Slab                  1744668       1605020       2054492       1814948
 MEMORY| SReclaimable          1434188       1296808       1742936       1507101
 MEMORY| MemLikelyFree       781519236     781519236     781570260     781538581


 *** Fundamental physical constants (SI units) ***

 *** Literature: B. J. Mohr and B. N. Taylor,
 ***             CODATA recommended values of the fundamental physical
 ***             constants: 2006, Web Version 5.1
 ***             http://physics.nist.gov/constants

 Speed of light in vacuum [m/s]                             2.99792458000000E+08
 Magnetic constant or permeability of vacuum [N/A**2]       1.25663706143592E-06
 Electric constant or permittivity of vacuum [F/m]          8.85418781762039E-12
 Planck constant (h) [J*s]                                  6.62606896000000E-34
 Planck constant (h-bar) [J*s]                              1.05457162825177E-34
 Elementary charge [C]                                      1.60217648700000E-19
 Electron mass [kg]                                         9.10938215000000E-31
 Electron g factor [ ]                                     -2.00231930436220E+00
 Proton mass [kg]                                           1.67262163700000E-27
 Fine-structure constant                                    7.29735253760000E-03
 Rydberg constant [1/m]                                     1.09737315685270E+07
 Avogadro constant [1/mol]                                  6.02214179000000E+23
 Boltzmann constant [J/K]                                   1.38065040000000E-23
 Atomic mass unit [kg]                                      1.66053878200000E-27
 Bohr radius [m]                                            5.29177208590000E-11

 *** Conversion factors ***

 [u] -> [a.u.]                                              1.82288848426455E+03
 [Angstrom] -> [Bohr] = [a.u.]                              1.88972613288564E+00
 [a.u.] = [Bohr] -> [Angstrom]                              5.29177208590000E-01
 [a.u.] -> [s]                                              2.41888432650478E-17
 [a.u.] -> [fs]                                             2.41888432650478E-02
 [a.u.] -> [J]                                              4.35974393937059E-18
 [a.u.] -> [N]                                              8.23872205491840E-08
 [a.u.] -> [K]                                              3.15774647902944E+05
 [a.u.] -> [kJ/mol]                                         2.62549961709828E+03
 [a.u.] -> [kcal/mol]                                       6.27509468713739E+02
 [a.u.] -> [Pa]                                             2.94210107994716E+13
 [a.u.] -> [bar]                                            2.94210107994716E+08
 [a.u.] -> [atm]                                            2.90362800883016E+08
 [a.u.] -> [eV]                                             2.72113838565563E+01
 [a.u.] -> [Hz]                                             6.57968392072181E+15
 [a.u.] -> [1/cm] (wave numbers)                            2.19474631370540E+05
 [a.u./Bohr**2] -> [1/cm]                                   5.14048714338585E+03
 

 CELL_TOP| Volume [angstrom^3]:                                         2867.349
 CELL_TOP| Vector a [angstrom    13.869     0.000     0.000    |a| =      13.869
 CELL_TOP| Vector b [angstrom     0.000    13.869     0.000    |b| =      13.869
 CELL_TOP| Vector c [angstrom     0.000     0.000    14.907    |c| =      14.907
 CELL_TOP| Angle (b,c), alpha [degree]:                                   90.000
 CELL_TOP| Angle (a,c), beta  [degree]:                                   90.000
 CELL_TOP| Angle (a,b), gamma [degree]:                                   90.000
 CELL_TOP| Numerically orthorhombic:                                         YES

 CELL| Volume [angstrom^3]:                                             2867.349
 CELL| Vector a [angstrom]:      13.869     0.000     0.000    |a| =      13.869
 CELL| Vector b [angstrom]:       0.000    13.869     0.000    |b| =      13.869
 CELL| Vector c [angstrom]:       0.000     0.000    14.907    |c| =      14.907
 CELL| Angle (b,c), alpha [degree]:                                       90.000
 CELL| Angle (a,c), beta  [degree]:                                       90.000
 CELL| Angle (a,b), gamma [degree]:                                       90.000
 CELL| Numerically orthorhombic:                                             YES

 CELL_REF| Volume [angstrom^3]:                                         2867.349
 CELL_REF| Vector a [angstrom    13.869     0.000     0.000    |a| =      13.869
 CELL_REF| Vector b [angstrom     0.000    13.869     0.000    |b| =      13.869
 CELL_REF| Vector c [angstrom     0.000     0.000    14.907    |c| =      14.907
 CELL_REF| Angle (b,c), alpha [degree]:                                   90.000
 CELL_REF| Angle (a,c), beta  [degree]:                                   90.000
 CELL_REF| Angle (a,b), gamma [degree]:                                   90.000
 CELL_REF| Numerically orthorhombic:                                         YES

 *******************************************************************************
 *******************************************************************************
 **                                                                           **
 **     #####                         ##              ##                      **
 **    ##   ##            ##          ##              ##                      **
 **   ##     ##                       ##            ######                    **
 **   ##     ##  ##   ##  ##   #####  ##  ##   ####   ##    #####    #####    **
 **   ##     ##  ##   ##  ##  ##      ## ##   ##      ##   ##   ##  ##   ##   **
 **   ##  ## ##  ##   ##  ##  ##      ####     ###    ##   ######   ######    **
 **    ##  ###   ##   ##  ##  ##      ## ##      ##   ##   ##       ##        **
 **     #######   #####   ##   #####  ##  ##  ####    ##    #####   ##        **
 **           ##                                                    ##        **
 **                                                                           **
 **                                                ... make the atoms dance   **
 **                                                                           **
 **            Copyright (C) by CP2K developers group (2000 - 2018)           **
 **                                                                           **
 *******************************************************************************

 DFT| Spin unrestricted (spin-polarized) Kohn-Sham calculation               UKS
 DFT| Multiplicity                                                             2
 DFT| Number of spin states                                                    2
 DFT| Charge                                                                  -1
 DFT| Self-interaction correction (SIC)                                       NO
 DFT| Cutoffs: density                                              1.000000E-10
 DFT|          gradient                                             1.000000E-10
 DFT|          tau                                                  1.000000E-10
 DFT|          cutoff_smoothing_range                               0.000000E+00
 DFT| XC density smoothing                                                  NONE
 DFT| XC derivatives                                                          PW

 DFT+U| Method                                                            LOWDIN
 DFT+U| Check atomic kind information for details
 FUNCTIONAL| ROUTINE=NEW
 FUNCTIONAL| PBE:
 FUNCTIONAL| J.P.Perdew, K.Burke, M.Ernzerhof, Phys. Rev. Letter, vol. 77, n 18,
 FUNCTIONAL|  pp. 3865-3868, (1996){spin polarized}                             

 QS| Method:                                                                 GPW
 QS| Density plane wave grid type                        NON-SPHERICAL FULLSPACE
 QS| Number of grid levels:                                                   10
 QS| Density cutoff [a.u.]:                                                325.0
 QS| Multi grid cutoff [a.u.]: 1) grid level                               325.0
 QS|                           2) grid level                               108.3
 QS|                           3) grid level                                36.1
 QS|                           4) grid level                                12.0
 QS|                           5) grid level                                 4.0
 QS|                           6) grid level                                 1.3
 QS|                           7) grid level                                 0.4
 QS|                           8) grid level                                 0.1
 QS|                           9) grid level                                 0.0
 QS|                          10) grid level                                 0.0
 QS| Grid level progression factor:                                          3.0
 QS| Relative density cutoff [a.u.]:                                        30.0
 QS| Consistent realspace mapping and integration 
 QS| Interaction thresholds: eps_pgf_orb:                                1.0E-12
 QS|                         eps_filter_matrix:                          0.0E+00
 QS|                         eps_core_charge:                            1.0E-14
 QS|                         eps_rho_gspace:                             1.0E-12
 QS|                         eps_rho_rspace:                             1.0E-12
 QS|                         eps_gvg_rspace:                             1.0E-06
 QS|                         eps_ppl:                                    1.0E-02
 QS|                         eps_ppnl:                                   1.0E-08


 ATOMIC KIND INFORMATION

  1. Atomic kind: Ti                                    Number of atoms:      90

     Orbital Basis Set                                              modified-DZV

       Number of orbital shell sets:                                           1
       Number of orbital shells:                                               7
       Number of primitive Cartesian functions:                                6
       Number of Cartesian basis functions:                                   21
       Number of spherical basis functions:                                   19
       Norm type:                                                              2

       Normalised Cartesian orbitals:

                        Set   Shell   Orbital            Exponent    Coefficient

                          1       1    2s                7.884570       0.015554
                                                         3.894698       0.963603
                                                         1.513589      -0.631435
                                                         0.596768      -0.343022
                                                         0.222222      -0.006534
                                                         0.077078       0.007652

                          1       2    3s                7.884570      -0.009340
                                                         3.894698       0.212624
                                                         1.513589      -0.258368
                                                         0.596768      -0.226206
                                                         0.222222       0.039438
                                                         0.077078       0.107179

                          1       3    4s                7.884570       0.276563
                                                         3.894698       0.105452
                                                         1.513589       0.085149
                                                         0.596768       0.882541
                                                         0.222222      -0.696223
                                                         0.077078       0.156638

                          1       4    3px               7.884570      -2.034794
                                                         3.894698       0.782008
                                                         1.513589       1.253903
                                                         0.596768       0.347823
                                                         0.222222       0.016778
                                                         0.077078      -0.000433
                          1       4    3py               7.884570      -2.034794
                                                         3.894698       0.782008
                                                         1.513589       1.253903
                                                         0.596768       0.347823
                                                         0.222222       0.016778
                                                         0.077078      -0.000433
                          1       4    3pz               7.884570      -2.034794
                                                         3.894698       0.782008
                                                         1.513589       1.253903
                                                         0.596768       0.347823
                                                         0.222222       0.016778
                                                         0.077078      -0.000433

                          1       5    4px               7.884570       0.376572
                                                         3.894698      -0.182875
                                                         1.513589      -0.474776
                                                         0.596768      -0.081757
                                                         0.222222       0.064432
                                                         0.077078       0.047279
                          1       5    4py               7.884570       0.376572
                                                         3.894698      -0.182875
                                                         1.513589      -0.474776
                                                         0.596768      -0.081757
                                                         0.222222       0.064432
                                                         0.077078       0.047279
                          1       5    4pz               7.884570       0.376572
                                                         3.894698      -0.182875
                                                         1.513589      -0.474776
                                                         0.596768      -0.081757
                                                         0.222222       0.064432
                                                         0.077078       0.047279

                          1       6    4dx2              7.884570       3.047350
                                                         3.894698       3.289529
                                                         1.513589       1.060616
                                                         0.596768       0.249930
                                                         0.222222       0.038806
                                                         0.077078       0.002319
                          1       6    4dxy              7.884570       5.278165
                                                         3.894698       5.697631
                                                         1.513589       1.837041
                                                         0.596768       0.432892
                                                         0.222222       0.067214
                                                         0.077078       0.004017
                          1       6    4dxz              7.884570       5.278165
                                                         3.894698       5.697631
                                                         1.513589       1.837041
                                                         0.596768       0.432892
                                                         0.222222       0.067214
                                                         0.077078       0.004017
                          1       6    4dy2              7.884570       3.047350
                                                         3.894698       3.289529
                                                         1.513589       1.060616
                                                         0.596768       0.249930
                                                         0.222222       0.038806
                                                         0.077078       0.002319
                          1       6    4dyz              7.884570       5.278165
                                                         3.894698       5.697631
                                                         1.513589       1.837041
                                                         0.596768       0.432892
                                                         0.222222       0.067214
                                                         0.077078       0.004017
                          1       6    4dz2              7.884570       3.047350
                                                         3.894698       3.289529
                                                         1.513589       1.060616
                                                         0.596768       0.249930
                                                         0.222222       0.038806
                                                         0.077078       0.002319

                          1       7    5dx2              7.884570      -2.119015
                                                         3.894698      -1.237751
                                                         1.513589      -0.746777
                                                         0.596768      -0.071514
                                                         0.222222       0.004086
                                                         0.077078       0.017595
                          1       7    5dxy              7.884570      -3.670241
                                                         3.894698      -2.143848
                                                         1.513589      -1.293455
                                                         0.596768      -0.123865
                                                         0.222222       0.007077
                                                         0.077078       0.030475
                          1       7    5dxz              7.884570      -3.670241
                                                         3.894698      -2.143848
                                                         1.513589      -1.293455
                                                         0.596768      -0.123865
                                                         0.222222       0.007077
                                                         0.077078       0.030475
                          1       7    5dy2              7.884570      -2.119015
                                                         3.894698      -1.237751
                                                         1.513589      -0.746777
                                                         0.596768      -0.071514
                                                         0.222222       0.004086
                                                         0.077078       0.017595
                          1       7    5dyz              7.884570      -3.670241
                                                         3.894698      -2.143848
                                                         1.513589      -1.293455
                                                         0.596768      -0.123865
                                                         0.222222       0.007077
                                                         0.077078       0.030475
                          1       7    5dz2              7.884570      -2.119015
                                                         3.894698      -1.237751
                                                         1.513589      -0.746777
                                                         0.596768      -0.071514
                                                         0.222222       0.004086
                                                         0.077078       0.017595

     GTH Potential information for                                   GTH-PBE-q12

       Description:                       Goedecker-Teter-Hutter pseudopotential
                                           Goedecker et al., PRB 54, 1703 (1996)
                                          Hartwigsen et al., PRB 58, 3641 (1998)
                                                      Krack, TCA 114, 145 (2005)

       Gaussian exponent of the core charge distribution:               3.462604
       Electronic configuration (s p d ...):                           4   6   2

       Parameters of the local part of the GTH pseudopotential:

                          rloc        C1          C2          C3          C4
                        0.380000    8.711442   -0.700287

       Parameters of the non-local part of the GTH pseudopotential:

                   l      r(l)      h(i,j,l)

                   0    0.337771    2.575264    3.692971
                                    3.692971   -4.767605
                   1    0.242531   -4.630541    8.870875
                                    8.870875  -10.496161
                   2    0.243317   -9.406653

     A DFT+U correction is applied to atoms of this atomic kind:
       Angular quantum momentum number L:                                      2
       U(eff) = (U - J) value in [eV]:                                     9.987

  2. Atomic kind: O                                     Number of atoms:     180

     Orbital Basis Set                                              modified-DZV

       Number of orbital shell sets:                                           1
       Number of orbital shells:                                               4
       Number of primitive Cartesian functions:                                5
       Number of Cartesian basis functions:                                    8
       Number of spherical basis functions:                                    8
       Norm type:                                                              2

       Normalised Cartesian orbitals:

                        Set   Shell   Orbital            Exponent    Coefficient

                          1       1    2s               10.389228       0.396646
                                                         3.849621       0.208811
                                                         1.388401      -0.301641
                                                         0.496955      -0.274061
                                                         0.162492      -0.033677

                          1       2    3s               10.389228       0.303673
                                                         3.849621       0.240943
                                                         1.388401      -0.313066
                                                         0.496955      -0.043055
                                                         0.162492       0.213991

                          1       3    3px              10.389228      -1.530415
                                                         3.849621      -1.371928
                                                         1.388401      -0.761951
                                                         0.496955      -0.253695
                                                         0.162492      -0.035541
                          1       3    3py              10.389228      -1.530415
                                                         3.849621      -1.371928
                                                         1.388401      -0.761951
                                                         0.496955      -0.253695
                                                         0.162492      -0.035541
                          1       3    3pz              10.389228      -1.530415
                                                         3.849621      -1.371928
                                                         1.388401      -0.761951
                                                         0.496955      -0.253695
                                                         0.162492      -0.035541

                          1       4    4px              10.389228      -0.565392
                                                         3.849621      -0.038231
                                                         1.388401      -0.382373
                                                         0.496955       0.179070
                                                         0.162492       0.122714
                          1       4    4py              10.389228      -0.565392
                                                         3.849621      -0.038231
                                                         1.388401      -0.382373
                                                         0.496955       0.179070
                                                         0.162492       0.122714
                          1       4    4pz              10.389228      -0.565392
                                                         3.849621      -0.038231
                                                         1.388401      -0.382373
                                                         0.496955       0.179070
                                                         0.162492       0.122714

     GTH Potential information for                                    GTH-PBE-q6

       Description:                       Goedecker-Teter-Hutter pseudopotential
                                           Goedecker et al., PRB 54, 1703 (1996)
                                          Hartwigsen et al., PRB 58, 3641 (1998)
                                                      Krack, TCA 114, 145 (2005)

       Gaussian exponent of the core charge distribution:               8.360253
       Electronic configuration (s p d ...):                               2   4

       Parameters of the local part of the GTH pseudopotential:

                          rloc        C1          C2          C3          C4
                        0.244554  -16.667215    2.487311

       Parameters of the non-local part of the GTH pseudopotential:

                   l      r(l)      h(i,j,l)

                   0    0.220956   18.337458
                   1    0.211332


 MOLECULE KIND INFORMATION


 All atoms are their own molecule, skipping detailed information


 TOTAL NUMBERS AND MAXIMUM NUMBERS

  Total number of            - Atomic kinds:                                   2
                             - Atoms:                                        270
                             - Shell sets:                                   270
                             - Shells:                                      1350
                             - Primitive Cartesian functions:               1440
                             - Cartesian basis functions:                   3330
                             - Spherical basis functions:                   3150

  Maximum angular momentum of- Orbital basis functions:                        2
                             - Local part of the GTH pseudopotential:          2
                             - Non-local part of the GTH pseudopotential:      3


 MODULE QUICKSTEP:  ATOMIC COORDINATES IN angstrom

  Atom  Kind  Element       X           Y           Z          Z(eff)       Mass

       1     1 Ti  22    0.000982   -0.000043    0.000115     12.00      47.8670
       2     1 Ti  22    2.313577    2.309377    1.487863     12.00      47.8670
       3     1 Ti  22    4.632894    0.009893    0.000097     12.00      47.8670
       4     1 Ti  22    6.934586    2.311580    1.502017     12.00      47.8670
       5     1 Ti  22    9.243202    0.002476    0.000100     12.00      47.8670
       6     1 Ti  22   11.555436    2.313588    1.487719     12.00      47.8670
       7     1 Ti  22   -0.000761    4.623190    0.000115     12.00      47.8670
       8     1 Ti  22    2.312394    6.933827    1.487282     12.00      47.8670
       9     1 Ti  22    4.625477    4.620198    0.000100     12.00      47.8670
      10     1 Ti  22    6.936590    6.932433    1.487719     12.00      47.8670
      11     1 Ti  22    9.236256    4.613254    0.000097     12.00      47.8670
      12     1 Ti  22   11.554576    6.931569    1.488705     12.00      47.8670
      13     1 Ti  22    0.000068    9.246066    0.000106     12.00      47.8670
      14     1 Ti  22    2.314550   11.560549    1.488717     12.00      47.8670
      15     1 Ti  22    4.622961    9.246982    0.000115     12.00      47.8670
      16     1 Ti  22    6.932381   11.559574    1.487863     12.00      47.8670
      17     1 Ti  22    9.246190    9.245236    0.000115     12.00      47.8670
      18     1 Ti  22   11.556830   11.558390    1.487282     12.00      47.8670
      19     1 Ti  22   -0.001330    0.001906    2.975869     12.00      47.8670
      20     1 Ti  22    2.315522    2.306789    4.466067     12.00      47.8670
      21     1 Ti  22    4.630897    0.007890    2.977546     12.00      47.8670
      22     1 Ti  22    6.934707    2.311693    4.501535     12.00      47.8670
      23     1 Ti  22    9.247214   -0.000605    2.980075     12.00      47.8670
      24     1 Ti  22   11.554682    2.317431    4.465933     12.00      47.8670
      25     1 Ti  22    0.001909    4.621677    2.975862     12.00      47.8670
      26     1 Ti  22    2.313888    6.932790    4.465607     12.00      47.8670
      27     1 Ti  22    4.622401    4.624207    2.980074     12.00      47.8670
      28     1 Ti  22    6.940434    6.931683    4.465932     12.00      47.8670
      29     1 Ti  22    9.238370    4.615367    2.977545     12.00      47.8670
      30     1 Ti  22   11.554464    6.931435    4.469262     12.00      47.8670
      31     1 Ti  22    0.000087    9.246082    2.977076     12.00      47.8670
      32     1 Ti  22    2.314753   11.560753    4.469250     12.00      47.8670
      33     1 Ti  22    4.624902    9.244664    2.975868     12.00      47.8670
      34     1 Ti  22    6.929810   11.561488    4.466065     12.00      47.8670
      35     1 Ti  22    9.244689    9.247902    2.975859     12.00      47.8670
      36     1 Ti  22   11.555805   11.559886    4.465605     12.00      47.8670
      37     1 Ti  22    0.000379   -0.000126    5.957740     12.00      47.8670
      38     1 Ti  22    2.311367    2.313083    7.453621     12.00      47.8670
      39     1 Ti  22    4.637946    0.014901    5.958511     12.00      47.8670
      40     1 Ti  22    6.934955    2.311940    7.453531     12.00      47.8670
      41     1 Ti  22    9.242686    0.006077    5.964862     12.00      47.8670
      42     1 Ti  22   11.560247    2.312582    7.453621     12.00      47.8670
      43     1 Ti  22    0.001970    4.625506    5.957875     12.00      47.8670
      44     1 Ti  22    2.313423    6.935726    7.453622     12.00      47.8670
      45     1 Ti  22    4.629085    4.619675    5.964862     12.00      47.8670
      46     1 Ti  22    6.935572    6.937241    7.453621     12.00      47.8670
      47     1 Ti  22    9.231603    4.608604    5.958498     12.00      47.8670
      48     1 Ti  22   11.549186    6.926149    7.453626     12.00      47.8670
      49     1 Ti  22    0.000140    9.246131    5.959069     12.00      47.8670
      50     1 Ti  22    2.320122   11.566120    7.453626     12.00      47.8670
      51     1 Ti  22    4.622883    9.246388    5.957740     12.00      47.8670
      52     1 Ti  22    6.936148   11.557331    7.453621     12.00      47.8670
      53     1 Ti  22    9.248533    9.247929    5.957871     12.00      47.8670
      54     1 Ti  22   11.558716   11.559392    7.453622     12.00      47.8670
      55     1 Ti  22    0.000378   -0.000121    8.949482     12.00      47.8670
      56     1 Ti  22    2.315527    2.306787   10.441182     12.00      47.8670
      57     1 Ti  22    4.637962    0.014917    8.948678     12.00      47.8670
      58     1 Ti  22    6.934707    2.311693   10.405547     12.00      47.8670
      59     1 Ti  22    9.242677    0.006084    8.942321     12.00      47.8670
      60     1 Ti  22   11.554675    2.317431   10.441315     12.00      47.8670
      61     1 Ti  22    0.001971    4.625502    8.949347     12.00      47.8670
      62     1 Ti  22    2.313895    6.932783   10.441642     12.00      47.8670
      63     1 Ti  22    4.629092    4.619666    8.942321     12.00      47.8670
      64     1 Ti  22    6.940434    6.931676   10.441316     12.00      47.8670
      65     1 Ti  22    9.231587    4.608588    8.948691     12.00      47.8670
      66     1 Ti  22   11.554456    6.931428   10.437984     12.00      47.8670
      67     1 Ti  22    0.000140    9.246131    8.948141     12.00      47.8670
      68     1 Ti  22    2.314759   11.560759   10.437996     12.00      47.8670
      69     1 Ti  22    4.622888    9.246387    8.949483     12.00      47.8670
      70     1 Ti  22    6.929808   11.561494   10.441184     12.00      47.8670
      71     1 Ti  22    9.248529    9.247931    8.949351     12.00      47.8670
      72     1 Ti  22   11.555797   11.559893   10.441644     12.00      47.8670
      73     1 Ti  22   -0.001330    0.001908   11.931360     12.00      47.8670
      74     1 Ti  22    2.313578    2.309374   13.419391     12.00      47.8670
      75     1 Ti  22    4.630909    0.007903   11.929646     12.00      47.8670
      76     1 Ti  22    6.934585    2.311580   13.405085     12.00      47.8670
      77     1 Ti  22    9.247213   -0.000605   11.927119     12.00      47.8670
      78     1 Ti  22   11.555436    2.313592   13.419532     12.00      47.8670
      79     1 Ti  22    0.001908    4.621675   11.931367     12.00      47.8670
      80     1 Ti  22    2.312395    6.933825   13.419971     12.00      47.8670
      81     1 Ti  22    4.622400    4.624207   11.927120     12.00      47.8670
      82     1 Ti  22    6.936594    6.932432   13.419533     12.00      47.8670
      83     1 Ti  22    9.238358    4.615354   11.929646     12.00      47.8670
      84     1 Ti  22   11.554573    6.931565   13.418539     12.00      47.8670
      85     1 Ti  22    0.000087    9.246082   11.930135     12.00      47.8670
      86     1 Ti  22    2.314553   11.560553   13.418527     12.00      47.8670
      87     1 Ti  22    4.624903    9.244664   11.931361     12.00      47.8670
      88     1 Ti  22    6.932378   11.559575   13.419390     12.00      47.8670
      89     1 Ti  22    9.244688    9.247901   11.931370     12.00      47.8670
      90     1 Ti  22   11.556829   11.558391   13.419971     12.00      47.8670
      91     2 O    8    1.408646    1.409726   -0.000006      6.00      15.9994
      92     2 O    8    3.212875    3.213159   -0.000005      6.00      15.9994
      93     2 O    8    0.902563    3.720958    1.486735      6.00      15.9994
      94     2 O    8    3.719080    0.902492    1.485764      6.00      15.9994
      95     2 O    8    6.030825    1.407825   -0.000006      6.00      15.9994
      96     2 O    8    7.838257    3.215256   -0.000006      6.00      15.9994
      97     2 O    8    5.522874    3.723189    1.486224      6.00      15.9994
      98     2 O    8    8.346190    0.899873    1.486224      6.00      15.9994
      99     2 O    8   10.656177    1.409896   -0.000005      6.00      15.9994
     100     2 O    8   12.460427    3.213321   -0.000006      6.00      15.9994
     101     2 O    8   10.150003    3.720588    1.485772      6.00      15.9994
     102     2 O    8   12.966535    0.902122    1.486716      6.00      15.9994
     103     2 O    8    1.409545    6.032315   -0.000006      6.00      15.9994
     104     2 O    8    3.213744    7.836533   -0.000006      6.00      15.9994
     105     2 O    8    0.902709    8.343336    1.486676      6.00      15.9994
     106     2 O    8    3.719825    5.526256    1.486524      6.00      15.9994
     107     2 O    8    6.032896    6.033176   -0.000005      6.00      15.9994
     108     2 O    8    7.836322    7.837426   -0.000006      6.00      15.9994
     109     2 O    8    5.525122    8.343534    1.486716      6.00      15.9994
     110     2 O    8    8.343589    5.527002    1.485772      6.00      15.9994
     111     2 O    8   10.655904    6.032903   -0.000006      6.00      15.9994
     112     2 O    8   12.459997    7.836996   -0.000008      6.00      15.9994
     113     2 O    8   10.146687    8.345205    1.486760      6.00      15.9994
     114     2 O    8   12.968206    5.523686    1.486760      6.00      15.9994
     115     2 O    8    1.409052   10.655051   -0.000008      6.00      15.9994
     116     2 O    8    3.213160   12.459160   -0.000006      6.00      15.9994
     117     2 O    8    0.900879   12.968393    1.486748      6.00      15.9994
     118     2 O    8    3.722393   10.146879    1.486749      6.00      15.9994
     119     2 O    8    6.032727   10.654645   -0.000006      6.00      15.9994
     120     2 O    8    7.836160   12.458873   -0.000005      6.00      15.9994
     121     2 O    8    5.525493   12.965078    1.485763      6.00      15.9994
     122     2 O    8    8.343960   10.148562    1.486736      6.00      15.9994
     123     2 O    8   10.655316   10.655544   -0.000006      6.00      15.9994
     124     2 O    8   12.459534   12.459744   -0.000006      6.00      15.9994
     125     2 O    8   10.149257   12.965823    1.486523      6.00      15.9994
     126     2 O    8   12.966337   10.148709    1.486676      6.00      15.9994
     127     2 O    8    1.407644    1.410280    2.973214      6.00      15.9994
     128     2 O    8    3.212176    3.213030    2.974354      6.00      15.9994
     129     2 O    8    0.901523    3.720583    4.464784      6.00      15.9994
     130     2 O    8    3.709922    0.898068    4.456310      6.00      15.9994
     131     2 O    8    6.029456    1.406452    2.964312      6.00      15.9994
     132     2 O    8    7.839715    3.216714    2.964323      6.00      15.9994
     133     2 O    8    5.520536    3.725644    4.460598      6.00      15.9994
     134     2 O    8    8.348651    0.897534    4.460594      6.00      15.9994
     135     2 O    8   10.656956    1.410090    2.974454      6.00      15.9994
     136     2 O    8   12.461561    3.212874    2.973174      6.00      15.9994
     137     2 O    8   10.159621    3.725265    4.456251      6.00      15.9994
     138     2 O    8   12.967878    0.902840    4.464638      6.00      15.9994
     139     2 O    8    1.409525    6.032238    2.974324      6.00      15.9994
     140     2 O    8    3.213829    7.836523    2.974378      6.00      15.9994
     141     2 O    8    0.902499    8.343480    4.463434      6.00      15.9994
     142     2 O    8    3.718277    5.527840    4.461969      6.00      15.9994
     143     2 O    8    6.033091    6.033955    2.974456      6.00      15.9994
     144     2 O    8    7.835875    7.838559    2.973174      6.00      15.9994
     145     2 O    8    5.525842    8.344878    4.464639      6.00      15.9994
     146     2 O    8    8.348265    5.536619    4.456252      6.00      15.9994
     147     2 O    8   10.657134    6.034132    2.972655      6.00      15.9994
     148     2 O    8   12.460175    7.837173    2.974036      6.00      15.9994
     149     2 O    8   10.146435    8.345522    4.464228      6.00      15.9994
     150     2 O    8   12.968525    5.523433    4.464228      6.00      15.9994
     151     2 O    8    1.408873   10.654872    2.974035      6.00      15.9994
     152     2 O    8    3.211990   12.457990    2.972619      6.00      15.9994
     153     2 O    8    0.900712   12.968775    4.464062      6.00      15.9994
     154     2 O    8    3.722777   10.146713    4.464064      6.00      15.9994
     155     2 O    8    6.033281   10.653640    2.973214      6.00      15.9994
     156     2 O    8    7.836031   12.458173    2.974357      6.00      15.9994
     157     2 O    8    5.521067   12.955907    4.456309      6.00      15.9994
     158     2 O    8    8.343584   10.147518    4.464785      6.00      15.9994
     159     2 O    8   10.655240   10.655524    2.974324      6.00      15.9994
     160     2 O    8   12.459525   12.459828    2.974377      6.00      15.9994
     161     2 O    8   10.150844   12.964276    4.461968      6.00      15.9994
     162     2 O    8   12.966483   10.148498    4.463433      6.00      15.9994
     163     2 O    8    1.409018    1.409474    5.959876      6.00      15.9994
     164     2 O    8    3.212676    3.212507    5.953793      6.00      15.9994
     165     2 O    8    0.904139    3.721476    7.453480      6.00      15.9994
     166     2 O    8    3.723682    0.905697    7.453493      6.00      15.9994
     167     2 O    8    5.997595    1.374556    5.881347      6.00      15.9994
     168     2 O    8    7.872129    3.249117    5.880998      6.00      15.9994
     169     2 O    8    5.504214    3.743242    7.453501      6.00      15.9994
     170     2 O    8    8.366251    0.881201    7.453501      6.00      15.9994
     171     2 O    8   10.656680    1.410678    5.953309      6.00      15.9994
     172     2 O    8   12.460238    3.213686    5.960494      6.00      15.9994
     173     2 O    8   10.145600    3.717550    7.453493      6.00      15.9994
     174     2 O    8   12.965301    0.901711    7.453480      6.00      15.9994
     175     2 O    8    1.408962    6.032790    5.956390      6.00      15.9994
     176     2 O    8    3.213485    7.837267    5.955603      6.00      15.9994
     177     2 O    8    0.902683    8.343928    7.453477      6.00      15.9994
     178     2 O    8    3.713577    5.533484    7.453476      6.00      15.9994
     179     2 O    8    6.033679    6.033678    5.953307      6.00      15.9994
     180     2 O    8    7.836689    7.837236    5.960500      6.00      15.9994
     181     2 O    8    5.524708    8.342295    7.453480      6.00      15.9994
     182     2 O    8    8.340548    5.522596    7.453493      6.00      15.9994
     183     2 O    8   10.660156    6.037153    5.955283      6.00      15.9994
     184     2 O    8   12.461278    7.838273    5.955090      6.00      15.9994
     185     2 O    8   10.147152    8.345301    7.453479      6.00      15.9994
     186     2 O    8   12.968306    5.524147    7.453479      6.00      15.9994
     187     2 O    8    1.407906   10.653905    5.954848      6.00      15.9994
     188     2 O    8    3.209034   12.455032    5.955335      6.00      15.9994
     189     2 O    8    0.900908   12.968098    7.453480      6.00      15.9994
     190     2 O    8    3.722097   10.146909    7.453480      6.00      15.9994
     191     2 O    8    6.032480   10.655010    5.959889      6.00      15.9994
     192     2 O    8    7.835512   12.458669    5.953786      6.00      15.9994
     193     2 O    8    5.528707   12.969677    7.453493      6.00      15.9994
     194     2 O    8    8.344485   10.150139    7.453480      6.00      15.9994
     195     2 O    8   10.655795   10.654957    5.956386      6.00      15.9994
     196     2 O    8   12.460269   12.459483    5.955605      6.00      15.9994
     197     2 O    8   10.156483   12.959567    7.453476      6.00      15.9994
     198     2 O    8   12.966927   10.148678    7.453477      6.00      15.9994
     199     2 O    8    1.409017    1.409474    8.947094      6.00      15.9994
     200     2 O    8    3.212672    3.212507    8.953186      6.00      15.9994
     201     2 O    8    0.901522    3.720585   10.442194      6.00      15.9994
     202     2 O    8    3.709922    0.898068   10.450681      6.00      15.9994
     203     2 O    8    5.997597    1.374558    9.025656      6.00      15.9994
     204     2 O    8    7.872127    3.249115    9.026005      6.00      15.9994
     205     2 O    8    5.520533    3.725648   10.446388      6.00      15.9994
     206     2 O    8    8.348654    0.897531   10.446392      6.00      15.9994
     207     2 O    8   10.656683    1.410678    8.953668      6.00      15.9994
     208     2 O    8   12.460240    3.213686    8.946477      6.00      15.9994
     209     2 O    8   10.159620    3.725265   10.450740      6.00      15.9994
     210     2 O    8   12.967879    0.902839   10.442340      6.00      15.9994
     211     2 O    8    1.408963    6.032791    8.950578      6.00      15.9994
     212     2 O    8    3.213484    7.837266    8.951369      6.00      15.9994
     213     2 O    8    0.902497    8.343482   10.443542      6.00      15.9994
     214     2 O    8    3.718278    5.527839   10.445010      6.00      15.9994
     215     2 O    8    6.033679    6.033682    8.953671      6.00      15.9994
     216     2 O    8    7.836689    7.837238    8.946471      6.00      15.9994
     217     2 O    8    5.525841    8.344879   10.442339      6.00      15.9994
     218     2 O    8    8.348265    5.536619   10.450738      6.00      15.9994
     219     2 O    8   10.660160    6.037157    8.951698      6.00      15.9994
     220     2 O    8   12.461277    7.838272    8.951871      6.00      15.9994
     221     2 O    8   10.146434    8.345524   10.442751      6.00      15.9994
     222     2 O    8   12.968527    5.523433   10.442751      6.00      15.9994
     223     2 O    8    1.407907   10.653906    8.952113      6.00      15.9994
     224     2 O    8    3.209030   12.455028    8.951647      6.00      15.9994
     225     2 O    8    0.900711   12.968776   10.442917      6.00      15.9994
     226     2 O    8    3.722778   10.146712   10.442915      6.00      15.9994
     227     2 O    8    6.032480   10.655009    8.947081      6.00      15.9994
     228     2 O    8    7.835512   12.458666    8.953193      6.00      15.9994
     229     2 O    8    5.521066   12.955907   10.450681      6.00      15.9994
     230     2 O    8    8.343585   10.147517   10.442193      6.00      15.9994
     231     2 O    8   10.655795   10.654958    8.950582      6.00      15.9994
     232     2 O    8   12.460267   12.459483    8.951367      6.00      15.9994
     233     2 O    8   10.150844   12.964277   10.445011      6.00      15.9994
     234     2 O    8   12.966484   10.148496   10.443543      6.00      15.9994
     235     2 O    8    1.407644    1.410281   11.933773      6.00      15.9994
     236     2 O    8    3.212174    3.213029   11.932633      6.00      15.9994
     237     2 O    8    0.902563    3.720959   13.420252      6.00      15.9994
     238     2 O    8    3.719080    0.902492   13.421227      6.00      15.9994
     239     2 O    8    6.029458    1.406454   11.942680      6.00      15.9994
     240     2 O    8    7.839713    3.216712   11.942669      6.00      15.9994
     241     2 O    8    5.522872    3.723191   13.420764      6.00      15.9994
     242     2 O    8    8.346192    0.899871   13.420764      6.00      15.9994
     243     2 O    8   10.656958    1.410091   11.932532      6.00      15.9994
     244     2 O    8   12.461561    3.212873   11.933813      6.00      15.9994
     245     2 O    8   10.150003    3.720589   13.421219      6.00      15.9994
     246     2 O    8   12.966535    0.902121   13.420271      6.00      15.9994
     247     2 O    8    1.409526    6.032239   11.932660      6.00      15.9994
     248     2 O    8    3.213828    7.836523   11.932607      6.00      15.9994
     249     2 O    8    0.902709    8.343337   13.420310      6.00      15.9994
     250     2 O    8    3.719824    5.526256   13.420462      6.00      15.9994
     251     2 O    8    6.033092    6.033957   11.932529      6.00      15.9994
     252     2 O    8    7.835875    7.838559   11.933813      6.00      15.9994
     253     2 O    8    5.525121    8.343534   13.420271      6.00      15.9994
     254     2 O    8    8.343589    5.527002   13.421219      6.00      15.9994
     255     2 O    8   10.657136    6.034134   11.934331      6.00      15.9994
     256     2 O    8   12.460175    7.837172   11.932945      6.00      15.9994
     257     2 O    8   10.146686    8.345205   13.420227      6.00      15.9994
     258     2 O    8   12.968207    5.523685   13.420227      6.00      15.9994
     259     2 O    8    1.408874   10.654873   11.932945      6.00      15.9994
     260     2 O    8    3.211987   12.457987   11.934367      6.00      15.9994
     261     2 O    8    0.900879   12.968394   13.420238      6.00      15.9994
     262     2 O    8    3.722394   10.146878   13.420238      6.00      15.9994
     263     2 O    8    6.033282   10.653640   11.933773      6.00      15.9994
     264     2 O    8    7.836030   12.458172   11.932630      6.00      15.9994
     265     2 O    8    5.525493   12.965078   13.421227      6.00      15.9994
     266     2 O    8    8.343960   10.148562   13.420251      6.00      15.9994
     267     2 O    8   10.655240   10.655524   11.932661      6.00      15.9994
     268     2 O    8   12.459524   12.459828   11.932608      6.00      15.9994
     269     2 O    8   10.149257   12.965823   13.420463      6.00      15.9994
     270     2 O    8   12.966337   10.148708   13.420310      6.00      15.9994




 SCF PARAMETERS         Density guess:                                   RESTART
                        --------------------------------------------------------
                        max_scf:                                             500
                        max_scf_history:                                       0
                        max_diis:                                              4
                        --------------------------------------------------------
                        eps_scf:                                        1.00E-06
                        eps_scf_history:                                0.00E+00
                        eps_diis:                                       5.00E-01
                        eps_eigval:                                     1.00E-05
                        --------------------------------------------------------
                        level_shift [a.u.]:                                 0.00
                        --------------------------------------------------------
                        Mixing method:                            BROYDEN_MIXING
                                                charge density mixing in g-space
                        --------------------------------------------------------
                        Outer loop SCF in use 
                        No variables optimised in outer loop
                        eps_scf                                         1.00E-06
                        max_scf                                              500
                        No outer loop optimization
                        step_size                                       5.00E-01

 PW_GRID| Information for grid number                                          1
 PW_GRID| Grid distributed over                                   128 processors
 PW_GRID| Real space group dimensions                                   128    1
 PW_GRID| the grid is blocked:                                                NO
 PW_GRID| Cutoff [a.u.]                                                    325.0
 PW_GRID| spherical cutoff:                                                   NO
 PW_GRID|   Bounds   1           -108     107                Points:         216
 PW_GRID|   Bounds   2           -108     107                Points:         216
 PW_GRID|   Bounds   3           -115     115                Points:         231
 PW_GRID| Volume element (a.u.^3)  0.1795E-02     Volume (a.u.^3)     19349.8300
 PW_GRID| Grid span                                                    FULLSPACE
 PW_GRID|   Distribution                         Average         Max         Min
 PW_GRID|   G-Vectors                            84199.5       84240       84024
 PW_GRID|   G-Rays                                 389.8         390         389
 PW_GRID|   Real Space Points                    84199.5       99792       49896

 PW_GRID| Information for grid number                                          2
 PW_GRID| Grid distributed over                                   128 processors
 PW_GRID| Real space group dimensions                                     8   16
 PW_GRID| the grid is blocked:                                                NO
 PW_GRID| Cutoff [a.u.]                                                    108.3
 PW_GRID| spherical cutoff:                                                   NO
 PW_GRID|   Bounds   1            -63      62                Points:         126
 PW_GRID|   Bounds   2            -63      62                Points:         126
 PW_GRID|   Bounds   3            -66      65                Points:         132
 PW_GRID| Volume element (a.u.^3)  0.9233E-02     Volume (a.u.^3)     19349.8300
 PW_GRID| Grid span                                                    FULLSPACE
 PW_GRID|   Distribution                         Average         Max         Min
 PW_GRID|   G-Vectors                            16372.1       16758       16002
 PW_GRID|   G-Rays                                 129.9         133         127
 PW_GRID|   Real Space Points                    16372.1       16896       13860

 PW_GRID| Information for grid number                                          3
 PW_GRID| Grid distributed over                                   128 processors
 PW_GRID| Real space group dimensions                                     8   16
 PW_GRID| the grid is blocked:                                                NO
 PW_GRID| Cutoff [a.u.]                                                     36.1
 PW_GRID| spherical cutoff:                                                   NO
 PW_GRID|   Bounds   1            -36      35                Points:          72
 PW_GRID|   Bounds   2            -36      35                Points:          72
 PW_GRID|   Bounds   3            -38      38                Points:          77
 PW_GRID| Volume element (a.u.^3)  0.4848E-01     Volume (a.u.^3)     19349.8300
 PW_GRID| Grid span                                                    FULLSPACE
 PW_GRID|   Distribution                         Average         Max         Min
 PW_GRID|   G-Vectors                             3118.5        3168        3024
 PW_GRID|   G-Rays                                  43.3          44          42
 PW_GRID|   Real Space Points                     3118.5        3465        2772

 PW_GRID| Information for grid number                                          4
 PW_GRID| Grid distributed over                                   128 processors
 PW_GRID| Real space group dimensions                                     8   16
 PW_GRID| the grid is blocked:                                                NO
 PW_GRID| Cutoff [a.u.]                                                     12.0
 PW_GRID| spherical cutoff:                                                   NO
 PW_GRID|   Bounds   1            -21      20                Points:          42
 PW_GRID|   Bounds   2            -21      20                Points:          42
 PW_GRID|   Bounds   3            -22      21                Points:          44
 PW_GRID| Volume element (a.u.^3)  0.2493         Volume (a.u.^3)     19349.8300
 PW_GRID| Grid span                                                    FULLSPACE
 PW_GRID|   Distribution                         Average         Max         Min
 PW_GRID|   G-Vectors                              606.4         672         546
 PW_GRID|   G-Rays                                  14.4          16          13
 PW_GRID|   Real Space Points                      606.4         792         440

 PW_GRID| Information for grid number                                          5
 PW_GRID| Grid distributed over                                   128 processors
 PW_GRID| Real space group dimensions                                     8   16
 PW_GRID| the grid is blocked:                                                NO
 PW_GRID| Cutoff [a.u.]                                                      4.0
 PW_GRID| spherical cutoff:                                                   NO
 PW_GRID|   Bounds   1            -12      11                Points:          24
 PW_GRID|   Bounds   2            -12      11                Points:          24
 PW_GRID|   Bounds   3            -12      12                Points:          25
 PW_GRID| Volume element (a.u.^3)   1.344         Volume (a.u.^3)     19349.8300
 PW_GRID| Grid span                                                    FULLSPACE
 PW_GRID|   Distribution                         Average         Max         Min
 PW_GRID|   G-Vectors                              112.5         144          96
 PW_GRID|   G-Rays                                   4.7           6           4
 PW_GRID|   Real Space Points                      112.5         150          75

 PW_GRID| Information for grid number                                          6
 PW_GRID| Grid distributed over                                   128 processors
 PW_GRID| Real space group dimensions                                     8   16
 PW_GRID| the grid is blocked:                                                NO
 PW_GRID| Cutoff [a.u.]                                                      1.3
 PW_GRID| spherical cutoff:                                                   NO
 PW_GRID|   Bounds   1             -7       6                Points:          14
 PW_GRID|   Bounds   2             -7       6                Points:          14
 PW_GRID|   Bounds   3             -7       7                Points:          15
 PW_GRID| Volume element (a.u.^3)   6.582         Volume (a.u.^3)     19349.8300
 PW_GRID| Grid span                                                    FULLSPACE
 PW_GRID|   Distribution                         Average         Max         Min
 PW_GRID|   G-Vectors                               23.0          42          14
 PW_GRID|   G-Rays                                   1.6           3           1
 PW_GRID|   Real Space Points                       23.0          30           0

 PW_GRID| Information for grid number                                          7
 PW_GRID| Grid distributed over                                   128 processors
 PW_GRID| Real space group dimensions                                     8   16
 PW_GRID| the grid is blocked:                                                NO
 PW_GRID| Cutoff [a.u.]                                                      0.4
 PW_GRID| spherical cutoff:                                                   NO
 PW_GRID|   Bounds   1             -3       3                Points:           7
 PW_GRID|   Bounds   2             -3       3                Points:           7
 PW_GRID|   Bounds   3             -4       4                Points:           9
 PW_GRID| Volume element (a.u.^3)   43.88         Volume (a.u.^3)     19349.8300
 PW_GRID| Grid span                                                    FULLSPACE
 PW_GRID|   Distribution                         Average         Max         Min
 PW_GRID|   G-Vectors                                3.4           7           0
 PW_GRID|   G-Rays                                   0.5           1           0
 PW_GRID|   Real Space Points                        3.4           9           0

 PW_GRID| Information for grid number                                          8
 PW_GRID| Grid distributed over                                   128 processors
 PW_GRID| Real space group dimensions                                     8   16
 PW_GRID| the grid is blocked:                                                NO
 PW_GRID| Cutoff [a.u.]                                                      0.1
 PW_GRID| spherical cutoff:                                                   NO
 PW_GRID|   Bounds   1             -2       2                Points:           5
 PW_GRID|   Bounds   2             -2       2                Points:           5
 PW_GRID|   Bounds   3             -2       2                Points:           5
 PW_GRID| Volume element (a.u.^3)   154.8         Volume (a.u.^3)     19349.8300
 PW_GRID| Grid span                                                    FULLSPACE
 PW_GRID|   Distribution                         Average         Max         Min
 PW_GRID|   G-Vectors                                1.0           5           0
 PW_GRID|   G-Rays                                   0.2           1           0
 PW_GRID|   Real Space Points                        1.0           5           0

 PW_GRID| Information for grid number                                          9
 PW_GRID| Grid distributed over                                   128 processors
 PW_GRID| Real space group dimensions                                     8   16
 PW_GRID| the grid is blocked:                                                NO
 PW_GRID| Cutoff [a.u.]                                                      0.0
 PW_GRID| spherical cutoff:                                                   NO
 PW_GRID|   Bounds   1             -1       1                Points:           3
 PW_GRID|   Bounds   2             -1       1                Points:           3
 PW_GRID|   Bounds   3             -1       1                Points:           3
 PW_GRID| Volume element (a.u.^3)   716.7         Volume (a.u.^3)     19349.8300
 PW_GRID| Grid span                                                    FULLSPACE
 PW_GRID|   Distribution                         Average         Max         Min
 PW_GRID|   G-Vectors                                0.2           3           0
 PW_GRID|   G-Rays                                   0.1           1           0
 PW_GRID|   Real Space Points                        0.2           3           0

 PW_GRID| Information for grid number                                         10
 PW_GRID| Grid distributed over                                   128 processors
 PW_GRID| Real space group dimensions                                     8   16
 PW_GRID| the grid is blocked:                                                NO
 PW_GRID| Cutoff [a.u.]                                                      0.0
 PW_GRID| spherical cutoff:                                                   NO
 PW_GRID|   Bounds   1              0       0                Points:           1
 PW_GRID|   Bounds   2              0       0                Points:           1
 PW_GRID|   Bounds   3              0       0                Points:           1
 PW_GRID| Volume element (a.u.^3)  0.1935E+05     Volume (a.u.^3)     19349.8300
 PW_GRID| Grid span                                                    FULLSPACE
 PW_GRID|   Distribution                         Average         Max         Min
 PW_GRID|   G-Vectors                                0.0           1           0
 PW_GRID|   G-Rays                                   0.0           1           0
 PW_GRID|   Real Space Points                        0.0           1           0

 POISSON| Solver                                                        PERIODIC
 POISSON| Periodicity                                                        XYZ

 RS_GRID| Information for grid number                                          1
 RS_GRID|   Bounds   1           -108     107                Points:         216
 RS_GRID|   Bounds   2           -108     107                Points:         216
 RS_GRID|   Bounds   3           -115     115                Points:         231
 RS_GRID| Real space distribution over                                  4 groups
 RS_GRID| Real space distribution along direction                              1
 RS_GRID| Border size                                                         27
 RS_GRID| Real space distribution over                                  4 groups
 RS_GRID| Real space distribution along direction                              2
 RS_GRID| Border size                                                         27
 RS_GRID| Real space distribution over                                  8 groups
 RS_GRID| Real space distribution along direction                              3
 RS_GRID| Border size                                                         27
 RS_GRID|   Distribution                         Average         Max         Min
 RS_GRID|   Planes                                 108.0         108         108
 RS_GRID|   Distribution                         Average         Max         Min
 RS_GRID|   Planes                                 108.0         108         108
 RS_GRID|   Distribution                         Average         Max         Min
 RS_GRID|   Planes                                  82.9          83          82

 RS_GRID| Information for grid number                                          2
 RS_GRID|   Bounds   1            -63      62                Points:         126
 RS_GRID|   Bounds   2            -63      62                Points:         126
 RS_GRID|   Bounds   3            -66      65                Points:         132
 RS_GRID| Real space distribution over                                  4 groups
 RS_GRID| Real space distribution along direction                              1
 RS_GRID| Border size                                                         25
 RS_GRID| Real space distribution over                                  4 groups
 RS_GRID| Real space distribution along direction                              2
 RS_GRID| Border size                                                         25
 RS_GRID| Real space distribution over                                  8 groups
 RS_GRID| Real space distribution along direction                              3
 RS_GRID| Border size                                                         25
 RS_GRID|   Distribution                         Average         Max         Min
 RS_GRID|   Planes                                  81.5          82          81
 RS_GRID|   Distribution                         Average         Max         Min
 RS_GRID|   Planes                                  81.5          82          81
 RS_GRID|   Distribution                         Average         Max         Min
 RS_GRID|   Planes                                  66.5          67          66

 RS_GRID| Information for grid number                                          3
 RS_GRID|   Bounds   1            -36      35                Points:          72
 RS_GRID|   Bounds   2            -36      35                Points:          72
 RS_GRID|   Bounds   3            -38      38                Points:          77
 RS_GRID| Real space fully replicated
 RS_GRID| Group size                                                           1

 RS_GRID| Information for grid number                                          4
 RS_GRID|   Bounds   1            -21      20                Points:          42
 RS_GRID|   Bounds   2            -21      20                Points:          42
 RS_GRID|   Bounds   3            -22      21                Points:          44
 RS_GRID| Real space fully replicated
 RS_GRID| Group size                                                           1

 RS_GRID| Information for grid number                                          5
 RS_GRID|   Bounds   1            -12      11                Points:          24
 RS_GRID|   Bounds   2            -12      11                Points:          24
 RS_GRID|   Bounds   3            -12      12                Points:          25
 RS_GRID| Real space fully replicated
 RS_GRID| Group size                                                           1

 RS_GRID| Information for grid number                                          6
 RS_GRID|   Bounds   1             -7       6                Points:          14
 RS_GRID|   Bounds   2             -7       6                Points:          14
 RS_GRID|   Bounds   3             -7       7                Points:          15
 RS_GRID| Real space fully replicated
 RS_GRID| Group size                                                           1

 RS_GRID| Information for grid number                                          7
 RS_GRID|   Bounds   1             -3       3                Points:           7
 RS_GRID|   Bounds   2             -3       3                Points:           7
 RS_GRID|   Bounds   3             -4       4                Points:           9
 RS_GRID| Real space fully replicated
 RS_GRID| Group size                                                           1

 RS_GRID| Information for grid number                                          8
 RS_GRID|   Bounds   1             -2       2                Points:           5
 RS_GRID|   Bounds   2             -2       2                Points:           5
 RS_GRID|   Bounds   3             -2       2                Points:           5
 RS_GRID| Real space fully replicated
 RS_GRID| Group size                                                           1

 RS_GRID| Information for grid number                                          9
 RS_GRID|   Bounds   1             -1       1                Points:           3
 RS_GRID|   Bounds   2             -1       1                Points:           3
 RS_GRID|   Bounds   3             -1       1                Points:           3
 RS_GRID| Real space fully replicated
 RS_GRID| Group size                                                           1

 RS_GRID| Information for grid number                                         10
 RS_GRID|   Bounds   1              0       0                Points:           1
 RS_GRID|   Bounds   2              0       0                Points:           1
 RS_GRID|   Bounds   3              0       0                Points:           1
 RS_GRID| Real space fully replicated
 RS_GRID| Group size                                                           1

 Spin 1

 Number of electrons:                                                       1081
 Number of occupied orbitals:                                               1081
 Number of molecular orbitals:                                              1081

 Spin 2

 Number of electrons:                                                       1080
 Number of occupied orbitals:                                               1080
 Number of molecular orbitals:                                              1080

 Number of orbital functions:                                               3150
 Number of independent orbital functions:                                   3150

 Extrapolation method: initial_guess


 SCF WAVEFUNCTION OPTIMIZATION

  Step     Update method      Time    Convergence         Total energy    Change
  ------------------------------------------------------------------------------
     1 NoMix/Diag. 0.40E+00    3.2     0.00000049     -8106.1068523836 -8.11E+03

  *** SCF run converged in     1 steps ***


  Electronic density on regular grids:      -2160.9999999993        0.0000000007
  Core density on regular grids:             2159.9999999994       -0.0000000006
  Total charge density on r-space grids:       -1.0000000000
  Total charge density g-space grids:          -1.0000000000

  Overlap energy of the core charge distribution:               0.00000000000205
  Self energy of the core charge distribution:             -17095.63438313942970
  Core Hamiltonian energy:                                   4546.57748435710255
  Hartree energy:                                            5706.60394878443913
  Exchange-correlation energy:                              -1294.25357585300594

  DFT+U energy:                                                30.59967346727726

  Total energy:                                             -8106.10685238361384

  outer SCF iter =    1 RMS gradient =   0.49E-06 energy =      -8106.1068523836
  outer SCF loop converged in   1 iterations or    1 steps


  Integrated absolute spin density  :                               1.1128894963
  Ideal and single determinant S**2 :                    0.750000       0.752232

 !-----------------------------------------------------------------------------!
                     Mulliken Population Analysis

 #  Atom  Element  Kind  Atomic population (alpha,beta) Net charge  Spin moment
       1     Ti       1         5.071550     5.071550     1.856900     0.000000
       2     Ti       1         5.071555     5.071552     1.856893     0.000003
       3     Ti       1         5.072170     5.072148     1.855682     0.000022
       4     Ti       1         5.073754     5.073159     1.853087     0.000596
       5     Ti       1         5.071703     5.071711     1.856586    -0.000007
       6     Ti       1         5.071554     5.071551     1.856896     0.000003
       7     Ti       1         5.071529     5.071529     1.856941     0.000000
       8     Ti       1         5.071418     5.071419     1.857164    -0.000001
       9     Ti       1         5.071703     5.071711     1.856586    -0.000007
      10     Ti       1         5.071554     5.071550     1.856896     0.000003
      11     Ti       1         5.072171     5.072149     1.855681     0.000022
      12     Ti       1         5.072010     5.072013     1.855977    -0.000003
      13     Ti       1         5.071516     5.071517     1.856968    -0.000001
      14     Ti       1         5.072017     5.072020     1.855963    -0.000003
      15     Ti       1         5.071550     5.071550     1.856900     0.000000
      16     Ti       1         5.071555     5.071552     1.856893     0.000003
      17     Ti       1         5.071529     5.071529     1.856941     0.000000
      18     Ti       1         5.071418     5.071419     1.857163    -0.000001
      19     Ti       1         5.071267     5.071265     1.857469     0.000002
      20     Ti       1         5.070900     5.070894     1.858206     0.000005
      21     Ti       1         5.070363     5.070333     1.859304     0.000030
      22     Ti       1         5.075940     5.073956     1.850103     0.001984
      23     Ti       1         5.071603     5.071607     1.856790    -0.000005
      24     Ti       1         5.070911     5.070905     1.858184     0.000005
      25     Ti       1         5.071288     5.071286     1.857426     0.000002
      26     Ti       1         5.070960     5.070971     1.858069    -0.000011
      27     Ti       1         5.071603     5.071607     1.856790    -0.000005
      28     Ti       1         5.070911     5.070905     1.858184     0.000005
      29     Ti       1         5.070361     5.070331     1.859308     0.000030
      30     Ti       1         5.070977     5.070955     1.858068     0.000022
      31     Ti       1         5.071151     5.071150     1.857698     0.000001
      32     Ti       1         5.071004     5.070982     1.858014     0.000022
      33     Ti       1         5.071267     5.071265     1.857468     0.000002
      34     Ti       1         5.070900     5.070894     1.858206     0.000005
      35     Ti       1         5.071288     5.071286     1.857427     0.000002
[...]
        63  Ti  5d+2            -0.022244
        64  Ti  3s               0.032909
        64  Ti  4py             -0.012178
        64  Ti  5d-2            -0.017213
        64  Ti  5d-1             0.010336
        65  Ti  2s              -0.139974
        65  Ti  3s               0.350697
        65  Ti  4s               0.010133
        65  Ti  3py             -0.085425
        65  Ti  3px             -0.061637
        65  Ti  4py             -0.374190
        65  Ti  4pz              0.022660
        65  Ti  4px             -0.218067
        65  Ti  4d-2             0.202093
        65  Ti  4d-1            -0.013335
        65  Ti  4d0             -0.124789
        65  Ti  4d+2            -0.070611
        65  Ti  5d-2             0.339600
        65  Ti  5d-1            -0.024286
        65  Ti  5d0             -0.209985
        65  Ti  5d+2            -0.170451
        66  Ti  2s               0.014396
        66  Ti  3s              -0.039985
        66  Ti  4pz              0.019070
        66  Ti  4px              0.010557
        66  Ti  4d-1            -0.011114
        66  Ti  5d-1            -0.023077
        66  Ti  5d+1            -0.019573
        70  Ti  5d-1             0.010800
        71  Ti  3s              -0.012521
        71  Ti  5d0              0.011990
        71  Ti  5d+2             0.011326
        75  Ti  2s              -0.013013
        75  Ti  3s               0.027851
        75  Ti  4py              0.010783
        75  Ti  5d-1             0.027372
        76  Ti  2s              -0.011781
        76  Ti  3s               0.019807
        76  Ti  4py             -0.013570
        76  Ti  4pz             -0.023727
        76  Ti  4d-1             0.011384
        76  Ti  5d-2            -0.014288
        76  Ti  5d-1             0.028355
        77  Ti  4pz              0.011201
        77  Ti  5d-1             0.019291
        77  Ti  5d+1            -0.018888
        77  Ti  5d+2             0.019611
        79  Ti  3s               0.018724
        81  Ti  3s              -0.015297
        81  Ti  4pz             -0.011872
        83  Ti  2s              -0.018722
        83  Ti  3s               0.030546
        83  Ti  4py              0.016211
        83  Ti  4pz             -0.031357
        83  Ti  4d-2            -0.026316
        83  Ti  4d0              0.021183
        83  Ti  5d-2            -0.057586
        83  Ti  5d0              0.062803
        83  Ti  5d+1             0.015744
        84  Ti  3s               0.011554
        84  Ti  4pz             -0.010672
       167  O   2s              -0.018105
       167  O   3s               0.041795
       167  O   4px              0.034776
       168  O   4py              0.013805
       168  O   4pz             -0.032144
       169  O   3s               0.027283
       169  O   4pz              0.075317
       169  O   4px              0.041734
       170  O   2s               0.012203
       170  O   3s              -0.045558
       170  O   4py             -0.042292
       170  O   4pz             -0.013470
       173  O   3s              -0.018921
       173  O   4py              0.056870
       173  O   4px              0.034784
       182  O   2s              -0.010054
       182  O   3s               0.034310
       182  O   4py             -0.012802
       182  O   4pz              0.035417
       183  O   3s               0.019996
       183  O   4py             -0.013258
       183  O   4px             -0.014413
       186  O   3s               0.010500
       200  O   4px             -0.012447
       203  O   2s              -0.027821
       203  O   3s               0.030514
       203  O   3py             -0.012797
       203  O   3px             -0.011746
       203  O   4py              0.080119
       203  O   4pz             -0.020423
       203  O   4px              0.029904
       204  O   3s               0.029277
       204  O   3py              0.015517
       204  O   3px              1.230646
       204  O   4py             -0.184793
       204  O   4pz              0.015819
       204  O   4px             -0.050502
       205  O   3s               0.028997
       205  O   4py              0.015487
       205  O   4pz             -0.076647
       205  O   4px              0.035305
       206  O   2s               0.015300
       206  O   3s              -0.054236
       206  O   4py             -0.053604
       206  O   4pz              0.015766
       207  O   3s              -0.021412
       207  O   4py             -0.036779
       207  O   4px              0.049566
       208  O   3s               0.012788
       208  O   4px             -0.013351
       209  O   3s              -0.029119
       209  O   4py              0.054209
       209  O   4px              0.037735
       215  O   3s               0.025414
       215  O   4py             -0.025858
       215  O   4px              0.022341
       216  O   3s               0.011933
       218  O   3s               0.031335
       218  O   4pz             -0.036906
       219  O   2s               0.032002
       219  O   3s              -0.068349
       219  O   4px              0.055386
       220  O   3s              -0.010008
       222  O   3s               0.010259
       228  O   3s               0.012389
       239  O   2s              -0.022499
       239  O   3s               0.048405
       239  O   4px              0.041700
       240  O   3s              -0.018547
       240  O   4py              0.022390
       240  O   4pz              0.045894
       255  O   3s               0.021273
       255  O   4py             -0.014261
       255  O   4px             -0.015714
 NOTE: IF SOME ORBS ARE EXCLUDED CHECK THE TOTAL CHRG MIGHT NOT REFLECT THE WHOLE FRG CHRG
   MOA FOR FRAGMENTS
   -----------------
  FRAG   POP         CHRG          SPIN
      ----------------------------------------------------
    1      0.95268     11.04732      0.95268
    2      0.00283     11.99717      0.00283
    3      0.01146     11.98854      0.01146
 ..... END OF MOA ANALYSIS FOR FRAGEMENTS .....
  
 ..... END OF MOA ANALYSIS .....

 ENERGY| Total FORCE_EVAL ( QS ) energy (a.u.):            -8106.106852383613841


 -------------------------------------------------------------------------------
 -                                                                             -
 -                                DBCSR STATISTICS                             -
 -                                                                             -
 -------------------------------------------------------------------------------
 COUNTER                                    TOTAL       BLAS       SMM       ACC
 flops     8 x    25 x     8            103680000     100.0%      0.0%      0.0%
 flops     8 x    14 x     8            116766720     100.0%      0.0%      0.0%
 flops    19 x    25 x     8            123120000     100.0%      0.0%      0.0%
 flops     8 x    25 x    19            123120000     100.0%      0.0%      0.0%
 flops    19 x    14 x     8            137894400     100.0%      0.0%      0.0%
 flops     8 x    14 x    19            137894400     100.0%      0.0%      0.0%
 flops    19 x    25 x    19            146205000     100.0%      0.0%      0.0%
 flops    19 x    14 x    19            165569040     100.0%      0.0%      0.0%
 flops     8 x    24 x     8            199065600     100.0%      0.0%      0.0%
 flops    19 x    24 x     8            236390400     100.0%      0.0%      0.0%
 flops     8 x    24 x    19            236390400     100.0%      0.0%      0.0%
 flops    19 x    24 x    19            280713600     100.0%      0.0%      0.0%
 flops     8 x     8 x    88            366981120     100.0%      0.0%      0.0%
 flops     8 x     8 x    89            371151360     100.0%      0.0%      0.0%
 flops    19 x     8 x    88            433382400     100.0%      0.0%      0.0%
 flops     8 x    19 x    88            433382400     100.0%      0.0%      0.0%
 flops    19 x     8 x    89            438307200     100.0%      0.0%      0.0%
 flops     8 x    19 x    89            438307200     100.0%      0.0%      0.0%
 flops    19 x    19 x    88            520359840     100.0%      0.0%      0.0%
 flops    19 x    19 x    89            526273020     100.0%      0.0%      0.0%
 flops     8 x     8 x    96            800686080     100.0%      0.0%      0.0%
 flops     8 x     8 x   206            859069440     100.0%      0.0%      0.0%
 flops    19 x     8 x    96            945561600     100.0%      0.0%      0.0%
 flops     8 x    19 x    96            945561600     100.0%      0.0%      0.0%
 flops    19 x     8 x   206           1014508800     100.0%      0.0%      0.0%
 flops     8 x    19 x   206           1014508800     100.0%      0.0%      0.0%
 flops    19 x    19 x    96           1135330560     100.0%      0.0%      0.0%
 flops    19 x    19 x   206           1218115080     100.0%      0.0%      0.0%
 flops     8 x     8 x   224           1868267520     100.0%      0.0%      0.0%
 flops    19 x     8 x   224           2206310400     100.0%      0.0%      0.0%
 flops     8 x    19 x   224           2206310400     100.0%      0.0%      0.0%
 flops    19 x    19 x   224           2649104640     100.0%      0.0%      0.0%
 flops     8 x     8 x    64           7473070080     100.0%      0.0%      0.0%
 flops    19 x     8 x    64           8825241600     100.0%      0.0%      0.0%
 flops     8 x    19 x    64           8825241600     100.0%      0.0%      0.0%
 flops     8 x     8 x   192          10408919040     100.0%      0.0%      0.0%
 flops    19 x    19 x    64          10596418560     100.0%      0.0%      0.0%
 flops    19 x     8 x   192          12292300800     100.0%      0.0%      0.0%
 flops     8 x    19 x   192          12292300800     100.0%      0.0%      0.0%
 flops    19 x    19 x   192          14759297280     100.0%      0.0%      0.0%
 flops     8 x    32 x     8          39294074880     100.0%      0.0%      0.0%
 flops    19 x    32 x     8          46490112000     100.0%      0.0%      0.0%
 flops     8 x    32 x    19          46490112000     100.0%      0.0%      0.0%
 flops    19 x    32 x    19          55614562560     100.0%      0.0%      0.0%
 flops inhomo. stacks                           0       0.0%      0.0%      0.0%
 flops total                       295.759940E+09     100.0%      0.0%      0.0%
 flops max/rank                      2.687029E+09     100.0%      0.0%      0.0%
 matmuls inhomo. stacks                         0       0.0%      0.0%      0.0%
 matmuls total                           25435620     100.0%      0.0%      0.0%
 number of processed stacks                 98166     100.0%      0.0%      0.0%
 average stack size                                   259.1       0.0       0.0
 marketing flops                   525.158220E+09
 -------------------------------------------------------------------------------
 # multiplications                             13
 max memory usage/rank             242.671616E+06
 # max total images/rank                        2
 # max 3D layers                                1
 # MPI messages exchanged                   74880
 MPI messages size (bytes):
  total size                        19.982193E+09
  min size                           0.000000E+00
  max size                         718.592000E+03
  average size                     266.856219E+03
 MPI breakdown and total messages size (bytes):
             size <=      128                3360                        0
       128 < size <=     8192                   0                        0
      8192 < size <=    32768                 480                 10562400
     32768 < size <=   131072               23520               2370816000
    131072 < size <=  4194304               47520              17600814000
   4194304 < size <= 16777216                   0                        0
  16777216 < size                               0                        0
 -------------------------------------------------------------------------------

 *** WARNING in dbcsr/mm/dbcsr_mm.F:268 :: Using a non-square number of ***
 *** MPI ranks might lead to poor performance.                          ***
 *** Used ranks: 128                                                    ***
 *** Suggested: 121 256                                                 ***

 -------------------------------------------------------------------------------

 MEMORY| Estimated peak process memory [MiB]                                 686

 -------------------------------------------------------------------------------
 ----                             MULTIGRID INFO                            ----
 -------------------------------------------------------------------------------
 count for grid        1:        3997666          cutoff [a.u.]          325.00
 count for grid        2:        1594024          cutoff [a.u.]          108.33
 count for grid        3:        1426136          cutoff [a.u.]           36.11
 count for grid        4:        1135787          cutoff [a.u.]           12.04
 count for grid        5:         147200          cutoff [a.u.]            4.01
 count for grid        6:              0          cutoff [a.u.]            1.34
 count for grid        7:              0          cutoff [a.u.]            0.45
 count for grid        8:              0          cutoff [a.u.]            0.15
 count for grid        9:              0          cutoff [a.u.]            0.05
 count for grid       10:              0          cutoff [a.u.]            0.02
 total gridlevel count  :        8300813

 -------------------------------------------------------------------------------
 -                                                                             -
 -                         MESSAGE PASSING PERFORMANCE                         -
 -                                                                             -
 -------------------------------------------------------------------------------

 ROUTINE             CALLS      AVE VOLUME [Bytes]
 MP_Group               26
 MP_Bcast             3664                 114737.
 MP_Allreduce         9217                 279325.
 MP_Sync            141567
 MP_Alltoall           633
 MP_ISendRecv        18288                   4455.
 MP_Wait             21678
 MP_comm_split        1372
 MP_ISend             3474                 116295.
 MP_IRecv             3376                 120328.
 MP_Recv            138738                   2231.
 MP_Memory             738
 -------------------------------------------------------------------------------


 -------------------------------------------------------------------------------
 -                                                                             -
 -                           R E F E R E N C E S                               -
 -                                                                             -
 -------------------------------------------------------------------------------
 
 CP2K version 6.1, the CP2K developers group (2018).
 CP2K is freely available from https://www.cp2k.org/ .

 Schuett, Ole; Messmer, Peter; Hutter, Juerg; VandeVondele, Joost. 
 Electronic Structure Calculations on Graphics Processing Units, John Wiley & Sons, Ltd, 173-190 (2016). 
 GPU-Accelerated Sparse Matrix-Matrix Multiplication for Linear Scaling Density Functional Theory.
 http://dx.doi.org/10.1002/9781118670712.ch8


 Borstnik, U; VandeVondele, J; Weber, V; Hutter, J. 
 PARALLEL COMPUTING, 40 (5-6), 47-58 (2014). 
 Sparse matrix multiplication: The distributed block-compressed sparse
 row library.
 http://dx.doi.org/10.1016/j.parco.2014.03.012


 Hutter, J; Iannuzzi, M; Schiffmann, F; VandeVondele, J. 
 WILEY INTERDISCIPLINARY REVIEWS-COMPUTATIONAL MOLECULAR SCIENCE, 4 (1), 15-25 (2014). 
 CP2K: atomistic simulations of condensed matter systems.
 http://dx.doi.org/10.1002/wcms.1159


 Krack, M. 
 THEORETICAL CHEMISTRY ACCOUNTS, 114 (1-3), 145-152 (2005). 
 Pseudopotentials for H to Kr optimized for gradient-corrected
 exchange-correlation functionals.
 http://dx.doi.org/10.1007/s00214-005-0655-y


 VandeVondele, J; Krack, M; Mohamed, F; Parrinello, M; Chassaing, T;
 Hutter, J. COMPUTER PHYSICS COMMUNICATIONS, 167 (2), 103-128 (2005). 
 QUICKSTEP: Fast and accurate density functional calculations using a
 mixed Gaussian and plane waves approach.
 http://dx.doi.org/10.1016/j.cpc.2004.12.014


 Frigo, M; Johnson, SG. 
 PROCEEDINGS OF THE IEEE, 93 (2), 216-231 (2005). 
 The design and implementation of FFTW3.
 http://dx.doi.org/10.1109/JPROC.2004.840301


 Hartwigsen, C; Goedecker, S; Hutter, J. 
 PHYSICAL REVIEW B, 58 (7), 3641-3662 (1998). 
 Relativistic separable dual-space Gaussian pseudopotentials from H to Rn.
 http://dx.doi.org/10.1103/PhysRevB.58.3641


 Dudarev, SL; Botton, GA; Savrasov, SY; Humphreys, CJ; Sutton, AP. 
 PHYSICAL REVIEW B, 57 (3), 1505-1509 (1998). 
 Electron-energy-loss spectra and the structural stability of
 nickel oxide: An LSDA+U study.
 http://dx.doi.org/10.1103/PhysRevB.57.1505


 Lippert, G; Hutter, J; Parrinello, M. 
 MOLECULAR PHYSICS, 92 (3), 477-487 (1997). 
 A hybrid Gaussian and plane wave density functional scheme.
 http://dx.doi.org/10.1080/002689797170220


 Dudarev, SL; Manh, DN; Sutton, AP. 
 PHILOSOPHICAL MAGAZINE B, 75 (5), 613-628 (1997). 
 Effect of Mott-Hubbard correlations on the electronic
 structure and structural stability of uranium dioxide.
 http://dx.doi.org/10.1080/13642819708202343


 Perdew, JP; Burke, K; Ernzerhof, M. 
 PHYSICAL REVIEW LETTERS, 77 (18), 3865-3868 (1996). 
 Generalized gradient approximation made simple.
 http://dx.doi.org/10.1103/PhysRevLett.77.3865


 Goedecker, S; Teter, M; Hutter, J. 
 PHYSICAL REVIEW B, 54 (3), 1703-1710 (1996). 
 Separable dual-space Gaussian pseudopotentials.
 http://dx.doi.org/10.1103/PhysRevB.54.1703


 -------------------------------------------------------------------------------
 -                                                                             -
 -                                T I M I N G                                  -
 -                                                                             -
 -------------------------------------------------------------------------------
 SUBROUTINE                       CALLS  ASD         SELF TIME        TOTAL TIME
                                MAXIMUM       AVERAGE  MAXIMUM  AVERAGE  MAXIMUM
 CP2K                                 1  1.0    0.014    0.019 1020.631 1020.632
 qs_energies                          1  2.0    0.000    0.000 1020.282 1020.359
 qs_energies_properties               1  3.0    0.000    0.000 1012.527 1012.602
 maximal_orbital_analysis             1  4.0   90.657   94.572 1012.527 1012.602
 moax_frg                             3  5.0  835.405  869.346  914.556  914.634
 cp_gemm                            101  6.5    0.001    0.001   42.927   64.589
 cp_gemm_fm_gemm                    101  7.5    0.000    0.001   42.926   64.588
 cp_fm_gemm                         101  8.5   42.926   64.588   42.926   64.588
 orbmoa_frg                           6  6.0    3.828    5.463   25.626   26.020
 -------------------------------------------------------------------------------

 The number of warnings for this run is : 1
 
 -------------------------------------------------------------------------------
  **** **** ******  **  PROGRAM ENDED AT                 2020-04-24 15:58:50.610
 ***** ** ***  *** **   PROGRAM RAN ON            cpn-u22-12.cbls.ccr.buffalo.ed
 **    ****   ******    PROGRAM RAN BY                                  pavankum
 ***** **    ** ** **   PROGRAM PROCESS ID                                133922
  **** **  *******  **  PROGRAM STOPPED IN /projects/academic/mdupuis2/pavan/MOA
                                           /results_for_paper/2.TiO2/DZV/at_szv_
                                           optgeo_lowdin_state0
