 DBCSR| Multiplication driver                                               BLAS
 DBCSR| Multrec recursion limit                                              512
 DBCSR| Multiplication stack size                                           1000
 DBCSR| Maximum elements for images                                    UNLIMITED
 DBCSR| Multiplicative factor virtual images                                   1
 DBCSR| Multiplication size stacks                                             3
 DBCSR| Number of 3D layers                                               SINGLE
 DBCSR| Use MPI memory allocation                                              T
 DBCSR| Use RMA algorithm                                                      F
 DBCSR| Use Communication thread                                               T
 DBCSR| Communication thread load                                             87


  **** **** ******  **  PROGRAM STARTED AT               2019-07-25 12:57:26.543
 ***** ** ***  *** **   PROGRAM STARTED ON        cpn-u28-41.cbls.ccr.buffalo.ed
 **    ****   ******    PROGRAM STARTED BY                              pavankum
 ***** **    ** ** **   PROGRAM PROCESS ID                                 33273
  **** **  *******  **  PROGRAM STARTED IN /projects/academic/mdupuis2/pavan/VAB
                                           _calculation/results_for_paper/2.Zn2+
                                           /gpw_pseudo/r_9

 CP2K| version string:                                          CP2K version 6.1
 CP2K| source code revision number:                                    svn:18464
 CP2K| cp2kflags: libint fftw3 libxc parallel mpi3 scalapack libderiv_max_am1=5 
 CP2K|            libint_max_am=6
 CP2K| is freely available from                            https://www.cp2k.org/
 CP2K| Program compiled at                          Fri Nov 30 14:17:09 EST 2018
 CP2K| Program compiled on                       srv-p22-12.cbls.ccr.buffalo.edu
 CP2K| Program compiled for                                                local
 CP2K| Data directory path    /projects/academic/mdupuis2/pavan/cp2k/cp2k-6.1/da
 CP2K| Input file name                                                 input.inp

 GLOBAL| Force Environment number                                              3
 GLOBAL| Basis set file name                                           BASIS_SET
 GLOBAL| Potential file name                                           POTENTIAL
 GLOBAL| MM Potential file name                                     MM_POTENTIAL
 GLOBAL| Coordinate file name                                     ./geometry.xyz
 GLOBAL| Force Environment number                                              1
 GLOBAL| Basis set file name            /projects/academic/mdupuis2/pavan/BASIS_
 GLOBAL| Potential file name            /projects/academic/mdupuis2/pavan/POTENT
 GLOBAL| MM Potential file name                                     MM_POTENTIAL
 GLOBAL| Coordinate file name                                       ./state0.xyz
 GLOBAL| Force Environment number                                              2
 GLOBAL| Basis set file name            /projects/academic/mdupuis2/pavan/BASIS_
 GLOBAL| Potential file name            /projects/academic/mdupuis2/pavan/POTENT
 GLOBAL| MM Potential file name                                     MM_POTENTIAL
 GLOBAL| Coordinate file name                                       ./state1.xyz
 GLOBAL| Method name                                                        CP2K
 GLOBAL| Project name                                                      p_zn_
 GLOBAL| Preferred FFT library                                             FFTW3
 GLOBAL| Preferred diagonalization lib.                                       SL
 GLOBAL| Run type                                                         ENERGY
 GLOBAL| All-to-all communication in single precision                          F
 GLOBAL| FFTs using library dependent lengths                                  T
 GLOBAL| Global print level                                               MEDIUM
 GLOBAL| Total number of message passing processes                            16
 GLOBAL| Number of threads for this process                                    1
 GLOBAL| This output is from process                                           0
 GLOBAL| CPU model name :  Intel(R) Xeon(R) Gold 5118 CPU @ 2.30GHz

 MEMORY| system memory details [Kb]
 MEMORY|                        rank 0           min           max       average
 MEMORY| MemTotal             97288368      97288368      97288368      97288368
 MEMORY| MemFree              93078548      93078548      93078548      93078548
 MEMORY| Buffers                323904        323904        323904        323904
 MEMORY| Cached                 613800        613800        613800        613800
 MEMORY| Slab                   420868        420868        420868        420868
 MEMORY| SReclaimable           159664        159664        159664        159664
 MEMORY| MemLikelyFree        94175916      94175916      94175916      94175916


 *** Fundamental physical constants (SI units) ***

 *** Literature: B. J. Mohr and B. N. Taylor,
 ***             CODATA recommended values of the fundamental physical
 ***             constants: 2006, Web Version 5.1
 ***             http://physics.nist.gov/constants

 Speed of light in vacuum [m/s]                             2.99792458000000E+08
 Magnetic constant or permeability of vacuum [N/A**2]       1.25663706143592E-06
 Electric constant or permittivity of vacuum [F/m]          8.85418781762039E-12
 Planck constant (h) [J*s]                                  6.62606896000000E-34
 Planck constant (h-bar) [J*s]                              1.05457162825177E-34
 Elementary charge [C]                                      1.60217648700000E-19
 Electron mass [kg]                                         9.10938215000000E-31
 Electron g factor [ ]                                     -2.00231930436220E+00
 Proton mass [kg]                                           1.67262163700000E-27
 Fine-structure constant                                    7.29735253760000E-03
 Rydberg constant [1/m]                                     1.09737315685270E+07
 Avogadro constant [1/mol]                                  6.02214179000000E+23
 Boltzmann constant [J/K]                                   1.38065040000000E-23
 Atomic mass unit [kg]                                      1.66053878200000E-27
 Bohr radius [m]                                            5.29177208590000E-11

 *** Conversion factors ***

 [u] -> [a.u.]                                              1.82288848426455E+03
 [Angstrom] -> [Bohr] = [a.u.]                              1.88972613288564E+00
 [a.u.] = [Bohr] -> [Angstrom]                              5.29177208590000E-01
 [a.u.] -> [s]                                              2.41888432650478E-17
 [a.u.] -> [fs]                                             2.41888432650478E-02
 [a.u.] -> [J]                                              4.35974393937059E-18
 [a.u.] -> [N]                                              8.23872205491840E-08
 [a.u.] -> [K]                                              3.15774647902944E+05
 [a.u.] -> [kJ/mol]                                         2.62549961709828E+03
 [a.u.] -> [kcal/mol]                                       6.27509468713739E+02
 [a.u.] -> [Pa]                                             2.94210107994716E+13
 [a.u.] -> [bar]                                            2.94210107994716E+08
 [a.u.] -> [atm]                                            2.90362800883016E+08
 [a.u.] -> [eV]                                             2.72113838565563E+01
 [a.u.] -> [Hz]                                             6.57968392072181E+15
 [a.u.] -> [1/cm] (wave numbers)                            2.19474631370540E+05
 [a.u./Bohr**2] -> [1/cm]                                   5.14048714338585E+03
 
 MIXED_ENV| Number of created MPI groups:                                      1
 MIXED_ENV| Task to group correspondence:
  (   0 :    0)  (   1 :    0)  (   2 :    0)  (   3 :    0)
  (   4 :    0)  (   5 :    0)  (   6 :    0)  (   7 :    0)
  (   8 :    0)  (   9 :    0)  (  10 :    0)  (  11 :    0)
  (  12 :    0)  (  13 :    0)  (  14 :    0)  (  15 :    0)
          ----------------------------------------------------------------------
 COLVARS| COLVAR INPUT INDEX:        1
 COLVARS| ENERGY          >>> ATOMS:                                        all!
          ----------------------------------------------------------------------

 CELL_TOP| Volume [angstrom^3]:                                         8000.000
 CELL_TOP| Vector a [angstrom    20.000     0.000     0.000    |a| =      20.000
 CELL_TOP| Vector b [angstrom     0.000    20.000     0.000    |b| =      20.000
 CELL_TOP| Vector c [angstrom     0.000     0.000    20.000    |c| =      20.000
 CELL_TOP| Angle (b,c), alpha [degree]:                                   90.000
 CELL_TOP| Angle (a,c), beta  [degree]:                                   90.000
 CELL_TOP| Angle (a,b), gamma [degree]:                                   90.000
 CELL_TOP| Numerically orthorhombic:                                         YES

 GENERATE|  Preliminary Number of Bonds generated:                             0
 GENERATE|  Achieved consistency in connectivity generation.

 CELL| Volume [angstrom^3]:                                             8000.000
 CELL| Vector a [angstrom]:      20.000     0.000     0.000    |a| =      20.000
 CELL| Vector b [angstrom]:       0.000    20.000     0.000    |b| =      20.000
 CELL| Vector c [angstrom]:       0.000     0.000    20.000    |c| =      20.000
 CELL| Angle (b,c), alpha [degree]:                                       90.000
 CELL| Angle (a,c), beta  [degree]:                                       90.000
 CELL| Angle (a,b), gamma [degree]:                                       90.000
 CELL| Numerically orthorhombic:                                             YES

 CELL_REF| Volume [angstrom^3]:                                         8000.000
 CELL_REF| Vector a [angstrom    20.000     0.000     0.000    |a| =      20.000
 CELL_REF| Vector b [angstrom     0.000    20.000     0.000    |b| =      20.000
 CELL_REF| Vector c [angstrom     0.000     0.000    20.000    |c| =      20.000
 CELL_REF| Angle (b,c), alpha [degree]:                                   90.000
 CELL_REF| Angle (a,c), beta  [degree]:                                   90.000
 CELL_REF| Angle (a,b), gamma [degree]:                                   90.000
 CELL_REF| Numerically orthorhombic:                                         YES


 MOLECULE KIND INFORMATION


 All atoms are their own molecule, skipping detailed information
 nspins, nimgs, gapw_xc           2           1 F 

 ####### CHECKS ON A and B #######
  E_A before:  -116.03117245386426     
  E_B before:  -116.03117245404476     
 ####### - #######
##Inside build_kohn_sham_matrix() before doing any function calls
 i). ELECTRON ONLY CALLS
 1. Electron_pw   120.24460962063742     
 2. Electron_1c   0.0000000000000000     
 ########## After 1st poisson call pure hartree  (sum of above two quantities) ##########   120.24460962063742     
 ########################
 1. Nuclear_pw   167.76742366297577     
 2. Nuclear_1c   0.0000000000000000     
 1. Hartree_pw   6.0457259518513125     
 2. Hartree_1c   0.0000000000000000     
 Regular: Before call to qs_vxc Regular_exc, exc1   0.0000000000000000        0.0000000000000000     
 Regular: After call to qs_vxc_create Regular_exc, exc1   0.0000000000000000        0.0000000000000000     
 iv). EXCHANGE ENERGY   -12.837656508130500     
 v). POTENTIAL ENERGY FROM CORE HAMILTONIAN   -117.64037437840997     
 vi). KINETIC ENERGY    167.70172077666192     
 vii). SELF ENERGY   -159.30058829583706     
      
 E_NUC is    8.4668353671387138     
      
IN build_kohn_sham_matrix() CALLING qs_ks_atom(),updates single atom contributions due to gapw
Inside build_kohn_sham_matrix() after doing all function calls and evaluating energy
 CHECK ON A IS DONE, E_A after passing modified PA_hat density:  -116.03117245386431     
##Inside build_kohn_sham_matrix() before doing any function calls
 i). ELECTRON ONLY CALLS
 1. Electron_pw   120.24460961442436     
 2. Electron_1c   0.0000000000000000     
 ########## After 1st poisson call pure hartree  (sum of above two quantities) ##########   120.24460961442436     
 ########################
 1. Nuclear_pw   167.76742366297577     
 2. Nuclear_1c   0.0000000000000000     
 1. Hartree_pw   6.0457259531749452     
 2. Hartree_1c   0.0000000000000000     
 Regular: Before call to qs_vxc Regular_exc, exc1   0.0000000000000000        0.0000000000000000     
 Regular: After call to qs_vxc_create Regular_exc, exc1   0.0000000000000000        0.0000000000000000     
 iv). EXCHANGE ENERGY   -12.837656507470982     
 v). POTENTIAL ENERGY FROM CORE HAMILTONIAN   -117.64037437230232     
 vi). KINETIC ENERGY    167.70172076839060     
 vii). SELF ENERGY   -159.30058829583706     
      
 E_NUC is    8.4668353671387138     
      
IN build_kohn_sham_matrix() CALLING qs_ks_atom(),updates single atom contributions due to gapw
Inside build_kohn_sham_matrix() after doing all function calls and evaluating energy
 CHECK ON B IS DONE, E_B after passing modified PB_hat density:  -116.03117245404481     
 DOING ANTI-SYMMETRIC PART OF VAB
##Inside build_kohn_sham_matrix() before doing any function calls
 i). ELECTRON ONLY CALLS
 1. Electron_pw   9.3313927051133779E-012
 2. Electron_1c   0.0000000000000000     
 ########## After 1st poisson call pure hartree  (sum of above two quantities) ##########   9.3313927051133779E-012
 ########################
 1. Nuclear_pw   167.76742366297577     
 2. Nuclear_1c   0.0000000000000000     
 1. Hartree_pw   167.76740201171492     
 2. Hartree_1c   0.0000000000000000     
 Regular: Before call to qs_vxc Regular_exc, exc1   0.0000000000000000        0.0000000000000000     
 Regular: After call to qs_vxc_create Regular_exc, exc1   0.0000000000000000        0.0000000000000000     
 iv). EXCHANGE ENERGY   -1.4577325709736775E-002
 v). POTENTIAL ENERGY FROM CORE HAMILTONIAN    1.2874711849016459E-010
 vi). KINETIC ENERGY   -5.9814354210784629E-006
 vii). SELF ENERGY   -159.30058829583706     
      
 E_NUC is    8.4668353671387138     
      
IN build_kohn_sham_matrix() CALLING qs_ks_atom(),updates single atom contributions due to gapw
Inside build_kohn_sham_matrix() after doing all function calls and evaluating energy
 DOING SYMMETRIC PART OF VAB
##Inside build_kohn_sham_matrix() before doing any function calls
 i). ELECTRON ONLY CALLS
 1. Electron_pw   4.2079883350303293E-005
 2. Electron_1c   0.0000000000000000     
 ########## After 1st poisson call pure hartree  (sum of above two quantities) ##########   4.2079883350303293E-005
 ########################
 ehartree, ehartree_1c after multiplying with DTPROD/DHPROD   7.1097565091752690E-002   0.0000000000000000     
 dtprod, dhprod are   1.0000000000000069        5.9186110376633488E-004
 J2_AB is    7.1097565091752690E-002
 1. Nuclear_pw   167.76742366297577     
 2. Nuclear_1c   0.0000000000000000     
 1. Hartree_pw   167.60061910703803     
 2. Hartree_1c   0.0000000000000000     
 Regular: Before call to qs_vxc Regular_exc, exc1   0.0000000000000000        0.0000000000000000     
 Regular: After call to qs_vxc_create Regular_exc, exc1   0.0000000000000000        0.0000000000000000     
 iv). EXCHANGE ENERGY   -1.4581798111361030E-002
 v). POTENTIAL ENERGY FROM CORE HAMILTONIAN   -6.9638933926796390E-002
 vi). KINETIC ENERGY    9.9254399025913417E-002
 vii). SELF ENERGY   -159.30058829583706     
      
 E_NUC is    8.4668353671387138     
      
IN build_kohn_sham_matrix() CALLING qs_ks_atom(),updates single atom contributions due to gapw
 ########################
 #########  ET  #########
 ------------------------
 E_NUC   8.4668353671387138     
 HAA <a|H|a>  -124.49800782100306     
 HBB <b|H|b>  -124.49800782118353     
             
 <a|H1|b> -0.13723117072196772     
 <a|H2|b>   6.3541059695816818E-002
 ...<a|J2|b>   7.1097565091752690E-002
 ...<a|K2|b>  -7.5565053959358768E-003
 HAB <a|H|b>  -7.3690111026150903E-002
 SAB   5.9186110376633900E-004
 VAB   4.5827020589202765E-006
  VAB in different units 
 ------------------------
          1.2470166482551052E-004 eV
          1.0057868450625425      1/cm
          2.8756889342664207E-003 kcal/mol
          1.2031882500970703E-002 kJ/mol
          30152731050.536472      Hertz
 ------------------------
 ------------------------
 E+  -124.49800320619811     
 E-  -124.49801243056385     
 (E+ - E-)/2   4.6121828782222161E-006
          1.2550387871594135E-004 eV
          1.0122571370113371      1/cm
          2.8941884275238265E-003 kcal/mol
          1.2109284380759691E-002 kJ/mol
          30346705523.267147      Hertz
 ------------------------
 ------------------------
Inside build_kohn_sham_matrix() after doing all function calls and evaluating energy
 NO FORCE_EVAL section calculated the dipole

 ENERGY| Total FORCE_EVAL ( MIXED ) energy (a.u.):             0.000000000180506


 -------------------------------------------------------------------------------
 -                                                                             -
 -                                DBCSR STATISTICS                             -
 -                                                                             -
 -------------------------------------------------------------------------------
 COUNTER                                    TOTAL       BLAS       SMM       ACC
 flops    25 x    12 x    25               120000     100.0%      0.0%      0.0%
 flops    25 x    11 x    25               220000     100.0%      0.0%      0.0%
 flops    25 x    25 x    11              2970000     100.0%      0.0%      0.0%
 flops    25 x    25 x    12              3240000     100.0%      0.0%      0.0%
 flops inhomo. stacks                           0       0.0%      0.0%      0.0%
 flops total                         6.550000E+06     100.0%      0.0%      0.0%
 flops max/rank                      2.240000E+06     100.0%      0.0%      0.0%
 matmuls inhomo. stacks                         0       0.0%      0.0%      0.0%
 matmuls total                                456     100.0%      0.0%      0.0%
 number of processed stacks                   456     100.0%      0.0%      0.0%
 average stack size                                     1.0       0.0       0.0
 marketing flops                     8.620000E+06
 -------------------------------------------------------------------------------
 # multiplications                            150
 max memory usage/rank             517.660672E+06
 # max total images/rank                        1
 # max 3D layers                                1
 # MPI messages exchanged                   14400
 MPI messages size (bytes):
  total size                         4.416000E+06
  min size                           0.000000E+00
  max size                           5.000000E+03
  average size                     306.666656E+00
 MPI breakdown and total messages size (bytes):
             size <=      128               12564                        0
       128 < size <=     8192                1836                  4416000
      8192 < size <=    32768                   0                        0
     32768 < size <=   131072                   0                        0
    131072 < size <=  4194304                   0                        0
   4194304 < size <= 16777216                   0                        0
  16777216 < size                               0                        0
 -------------------------------------------------------------------------------

 MEMORY| Estimated peak process memory [MiB]                                 498

 -------------------------------------------------------------------------------
 -                                                                             -
 -                         MESSAGE PASSING PERFORMANCE                         -
 -                                                                             -
 -------------------------------------------------------------------------------

 ROUTINE             CALLS      AVE VOLUME [Bytes]
 MP_Group              295
 MP_Bcast              440                1581528.
 MP_Allreduce         3036                    538.
 MP_Sync               821
 MP_Alltoall          7034                4681687.
 MP_ISendRecv        13260                  79105.
 MP_Wait             34076
 MP_comm_split         141
 MP_ISend            14240                 462381.
 MP_IRecv            14240                 462268.
 MP_Recv                24                   1200.
 MP_Memory            5936
 -------------------------------------------------------------------------------


 -------------------------------------------------------------------------------
 -                                                                             -
 -                           R E F E R E N C E S                               -
 -                                                                             -
 -------------------------------------------------------------------------------
 
 CP2K version 6.1, the CP2K developers group (2018).
 CP2K is freely available from https://www.cp2k.org/ .

 Schuett, Ole; Messmer, Peter; Hutter, Juerg; VandeVondele, Joost. 
 Electronic Structure Calculations on Graphics Processing Units, John Wiley & Sons, Ltd, 173-190 (2016). 
 GPU-Accelerated Sparse Matrix-Matrix Multiplication for Linear Scaling Density Functional Theory.
 http://dx.doi.org/10.1002/9781118670712.ch8


 Borstnik, U; VandeVondele, J; Weber, V; Hutter, J. 
 PARALLEL COMPUTING, 40 (5-6), 47-58 (2014). 
 Sparse matrix multiplication: The distributed block-compressed sparse
 row library.
 http://dx.doi.org/10.1016/j.parco.2014.03.012


 Hutter, J; Iannuzzi, M; Schiffmann, F; VandeVondele, J. 
 WILEY INTERDISCIPLINARY REVIEWS-COMPUTATIONAL MOLECULAR SCIENCE, 4 (1), 15-25 (2014). 
 CP2K: atomistic simulations of condensed matter systems.
 http://dx.doi.org/10.1002/wcms.1159


 Guidon, M; Hutter, J; VandeVondele, J. 
 JOURNAL OF CHEMICAL THEORY AND COMPUTATION, 5 (11), 3010-3021 (2009). 
 Robust Periodic Hartree-Fock Exchange for Large-Scale Simulations Using
 Gaussian Basis Sets.
 http://dx.doi.org/10.1021/ct900494g


 Guidon, M; Schiffmann, F; Hutter, J; VandeVondele, J. 
 JOURNAL OF CHEMICAL PHYSICS, 128 (21), 214104 (2008). 
 Ab initio molecular dynamics using hybrid density functionals.
 http://dx.doi.org/10.1063/1.2931945


 VandeVondele, J; Hutter, J. 
 JOURNAL OF CHEMICAL PHYSICS, 127 (11), 114105 (2007). 
 Gaussian basis sets for accurate calculations on molecular systems in
 gas and condensed phases.
 http://dx.doi.org/10.1063/1.2770708


 Genovese, L; Deutsch, T; Goedecker, S. 
 JOURNAL OF CHEMICAL PHYSICS, 127 (5), 054704 (2007). 
 Efficient and accurate three-dimensional Poisson solver for surface
 problems.
 http://dx.doi.org/10.1063/1.2754685


 Genovese, L; Deutsch, T; Neelov, A; Goedecker, S; Beylkin, G. 
 JOURNAL OF CHEMICAL PHYSICS, 125 (7), 074105 (2006). 
 Efficient solution of Poisson's equation with free boundary conditions.
 http://dx.doi.org/10.1063/1.2335442


 Krack, M. 
 THEORETICAL CHEMISTRY ACCOUNTS, 114 (1-3), 145-152 (2005). 
 Pseudopotentials for H to Kr optimized for gradient-corrected
 exchange-correlation functionals.
 http://dx.doi.org/10.1007/s00214-005-0655-y


 VandeVondele, J; Krack, M; Mohamed, F; Parrinello, M; Chassaing, T;
 Hutter, J. COMPUTER PHYSICS COMMUNICATIONS, 167 (2), 103-128 (2005). 
 QUICKSTEP: Fast and accurate density functional calculations using a
 mixed Gaussian and plane waves approach.
 http://dx.doi.org/10.1016/j.cpc.2004.12.014


 Frigo, M; Johnson, SG. 
 PROCEEDINGS OF THE IEEE, 93 (2), 216-231 (2005). 
 The design and implementation of FFTW3.
 http://dx.doi.org/10.1109/JPROC.2004.840301


 Hartwigsen, C; Goedecker, S; Hutter, J. 
 PHYSICAL REVIEW B, 58 (7), 3641-3662 (1998). 
 Relativistic separable dual-space Gaussian pseudopotentials from H to Rn.
 http://dx.doi.org/10.1103/PhysRevB.58.3641


 Lippert, G; Hutter, J; Parrinello, M. 
 MOLECULAR PHYSICS, 92 (3), 477-487 (1997). 
 A hybrid Gaussian and plane wave density functional scheme.
 http://dx.doi.org/10.1080/002689797170220


 Goedecker, S; Teter, M; Hutter, J. 
 PHYSICAL REVIEW B, 54 (3), 1703-1710 (1996). 
 Separable dual-space Gaussian pseudopotentials.
 http://dx.doi.org/10.1103/PhysRevB.54.1703


 -------------------------------------------------------------------------------
 -                                                                             -
 -                                T I M I N G                                  -
 -                                                                             -
 -------------------------------------------------------------------------------
 SUBROUTINE                       CALLS  ASD         SELF TIME        TOTAL TIME
                                MAXIMUM       AVERAGE  MAXIMUM  AVERAGE  MAXIMUM
 CP2K                                 1  1.0    0.050    0.061  170.056  170.057
 qs_energies                          2  2.0    0.000    0.000  161.386  161.388
 scf_env_do_scf                       2  3.0    0.000    0.000  159.194  159.197
 scf_env_do_scf_inner_loop           70  4.0    0.003    0.006  159.194  159.196
 qs_ks_update_qs_env                 74  4.8    0.002    0.002  117.171  117.282
 rebuild_ks_matrix                   74  5.8    0.000    0.000  117.165  117.276
 qs_ks_build_kohn_sham_matrix        74  6.8    0.016    0.018  117.165  117.276
 pw_transfer                       1556  9.1    0.086    0.121   73.437   76.102
 fft_wrap_pw1pw2                   1556 10.1    0.015    0.021   73.351   76.009
 fft_wrap_pw1pw2_140                680 10.7    5.490    6.932   67.378   71.866
 fft3d_ps                          1556 12.1   31.396   35.407   57.060   58.828
 qs_rho_update_rho                   76  4.8    0.001    0.001   50.447   50.448
 calculate_rho_elec                 152  5.8    0.678    0.981   50.447   50.447
 density_rs2pw                      152  6.8    0.011    0.013   46.896   47.852
 hfx_ks_matrix                       74  7.8    0.001    0.002   41.788   43.187
 integrate_four_center               74  8.8    0.093    0.136   41.785   43.185
 pw_poisson_solve                    82  7.6    1.448    1.757   37.195   37.232
 sum_up_and_integrate                70  8.0    0.001    0.001   29.175   29.287
 integrate_v_rspace                 140  9.0    0.117    0.392   29.174   29.286
 mp_alltoall_z22v                  1556 14.1   11.384   29.187   11.384   29.187
 potential_pw2rs                    140 10.0    0.030    0.040   29.018   29.095
 rs_pw_transfer                    1176  9.3    0.019    0.024   24.498   25.600
 yz_to_x                            832 12.4    6.732    8.683   13.665   21.185
 calc_screening_functions             2 10.0   19.738   20.229   20.009   20.504
 mp_sync                            821 10.6   13.329   18.903   13.329   18.903
 integrate_four_center_main          74  9.8    0.008    0.011    4.183   16.949
 integrate_four_center_bin         9472 10.8    4.175   16.946    4.175   16.946
 ps_wavelet_solve                    82  8.6   11.950   12.948   14.809   14.913
 mp_waitany                       11840 11.3    6.545   14.810    6.545   14.810
 x_to_yz                            724 13.8    7.515    9.351   11.967   13.382
 rs_pw_transfer_RS2PW_140           156  8.8    5.989    7.260    9.278   10.577
 rs_pw_transfer_PW2RS_140           144 11.9    5.383    6.532    8.498    9.426
 fft_wrap_pw1pw2_50                 292 11.4    0.269    0.347    5.047    7.255
 pw_gather_p                        832 11.4    6.023    7.231    6.023    7.231
 mp_sum_d                          1691  6.6    2.024    6.600    2.024    6.600
 mp_alltoall_d54                     82  9.6    1.158    5.916    1.158    5.916
 pw_scatter_p                       724 12.8    4.430    5.149    4.430    5.149
 mp_waitall_1                     22236 11.4    1.520    5.052    1.520    5.052
 rs_pw_transfer_PW2RS_50            140 12.0    1.293    1.627    3.009    4.937
 rs_grid_zero                       896  8.8    3.026    3.695    3.026    3.695
 calc_pair_dist_radii                 2 10.0    3.439    3.518    3.557    3.639
 mp_alltoall_d45                     84  9.6    1.425    3.401    1.425    3.401
 -------------------------------------------------------------------------------

 The number of warnings for this run is : 0
 
 -------------------------------------------------------------------------------
  **** **** ******  **  PROGRAM ENDED AT                 2019-07-25 13:00:16.755
 ***** ** ***  *** **   PROGRAM RAN ON            cpn-u28-41.cbls.ccr.buffalo.ed
 **    ****   ******    PROGRAM RAN BY                                  pavankum
 ***** **    ** ** **   PROGRAM PROCESS ID                                 33273
  **** **  *******  **  PROGRAM STOPPED IN /projects/academic/mdupuis2/pavan/VAB
                                           _calculation/results_for_paper/2.Zn2+
                                           /gpw_pseudo/r_9
