 DBCSR| Multiplication driver                                               BLAS
 DBCSR| Multrec recursion limit                                              512
 DBCSR| Multiplication stack size                                           1000
 DBCSR| Maximum elements for images                                    UNLIMITED
 DBCSR| Multiplicative factor virtual images                                   1
 DBCSR| Multiplication size stacks                                             3
 DBCSR| Number of 3D layers                                               SINGLE
 DBCSR| Use MPI memory allocation                                              T
 DBCSR| Use RMA algorithm                                                      F
 DBCSR| Use Communication thread                                               T
 DBCSR| Communication thread load                                             87


  **** **** ******  **  PROGRAM STARTED AT               2019-07-25 10:37:48.653
 ***** ** ***  *** **   PROGRAM STARTED ON        cpn-p28-36.cbls.ccr.buffalo.ed
 **    ****   ******    PROGRAM STARTED BY                              pavankum
 ***** **    ** ** **   PROGRAM PROCESS ID                                 71814
  **** **  *******  **  PROGRAM STARTED IN /projects/academic/mdupuis2/pavan/VAB
                                           _calculation/results_for_paper/1.He2+
                                           /r_2.5

 CP2K| version string:                                          CP2K version 6.1
 CP2K| source code revision number:                                    svn:18464
 CP2K| cp2kflags: libint fftw3 libxc parallel mpi3 scalapack libderiv_max_am1=5 
 CP2K|            libint_max_am=6
 CP2K| is freely available from                            https://www.cp2k.org/
 CP2K| Program compiled at                          Fri Nov 30 14:17:09 EST 2018
 CP2K| Program compiled on                       srv-p22-12.cbls.ccr.buffalo.edu
 CP2K| Program compiled for                                                local
 CP2K| Data directory path    /projects/academic/mdupuis2/pavan/cp2k/cp2k-6.1/da
 CP2K| Input file name                                                 input.inp

 GLOBAL| Force Environment number                                              3
 GLOBAL| Basis set file name                                           BASIS_SET
 GLOBAL| Potential file name                                           POTENTIAL
 GLOBAL| MM Potential file name                                     MM_POTENTIAL
 GLOBAL| Coordinate file name                                     ./geometry.xyz
 GLOBAL| Force Environment number                                              1
 GLOBAL| Basis set file name                                          ./HE_onlyS
 GLOBAL| Potential file name                                         ./POTENTIAL
 GLOBAL| MM Potential file name                                     MM_POTENTIAL
 GLOBAL| Coordinate file name                                       ./state0.xyz
 GLOBAL| Force Environment number                                              2
 GLOBAL| Basis set file name                                          ./HE_onlyS
 GLOBAL| Potential file name                                         ./POTENTIAL
 GLOBAL| MM Potential file name                                     MM_POTENTIAL
 GLOBAL| Coordinate file name                                       ./state1.xyz
 GLOBAL| Method name                                                        CP2K
 GLOBAL| Project name                                                      p_he_
 GLOBAL| Preferred FFT library                                             FFTW3
 GLOBAL| Preferred diagonalization lib.                                       SL
 GLOBAL| Run type                                                         ENERGY
 GLOBAL| All-to-all communication in single precision                          F
 GLOBAL| FFTs using library dependent lengths                                  T
 GLOBAL| Global print level                                               MEDIUM
 GLOBAL| Total number of message passing processes                             8
 GLOBAL| Number of threads for this process                                    1
 GLOBAL| This output is from process                                           0
 GLOBAL| CPU model name :  Intel(R) Xeon(R) CPU E5-2650 v3 @ 2.30GHz

 MEMORY| system memory details [Kb]
 MEMORY|                        rank 0           min           max       average
 MEMORY| MemTotal            131740876     131740876     131740876     131740876
 MEMORY| MemFree             126960996     126960996     126960996     126960996
 MEMORY| Buffers                340112        340112        340112        340112
 MEMORY| Cached                1363956       1363956       1363956       1363956
 MEMORY| Slab                   317940        317940        317940        317940
 MEMORY| SReclaimable           161164        161164        161164        161164
 MEMORY| MemLikelyFree       128826228     128826228     128826228     128826228


 *** Fundamental physical constants (SI units) ***

 *** Literature: B. J. Mohr and B. N. Taylor,
 ***             CODATA recommended values of the fundamental physical
 ***             constants: 2006, Web Version 5.1
 ***             http://physics.nist.gov/constants

 Speed of light in vacuum [m/s]                             2.99792458000000E+08
 Magnetic constant or permeability of vacuum [N/A**2]       1.25663706143592E-06
 Electric constant or permittivity of vacuum [F/m]          8.85418781762039E-12
 Planck constant (h) [J*s]                                  6.62606896000000E-34
 Planck constant (h-bar) [J*s]                              1.05457162825177E-34
 Elementary charge [C]                                      1.60217648700000E-19
 Electron mass [kg]                                         9.10938215000000E-31
 Electron g factor [ ]                                     -2.00231930436220E+00
 Proton mass [kg]                                           1.67262163700000E-27
 Fine-structure constant                                    7.29735253760000E-03
 Rydberg constant [1/m]                                     1.09737315685270E+07
 Avogadro constant [1/mol]                                  6.02214179000000E+23
 Boltzmann constant [J/K]                                   1.38065040000000E-23
 Atomic mass unit [kg]                                      1.66053878200000E-27
 Bohr radius [m]                                            5.29177208590000E-11

 *** Conversion factors ***

 [u] -> [a.u.]                                              1.82288848426455E+03
 [Angstrom] -> [Bohr] = [a.u.]                              1.88972613288564E+00
 [a.u.] = [Bohr] -> [Angstrom]                              5.29177208590000E-01
 [a.u.] -> [s]                                              2.41888432650478E-17
 [a.u.] -> [fs]                                             2.41888432650478E-02
 [a.u.] -> [J]                                              4.35974393937059E-18
 [a.u.] -> [N]                                              8.23872205491840E-08
 [a.u.] -> [K]                                              3.15774647902944E+05
 [a.u.] -> [kJ/mol]                                         2.62549961709828E+03
 [a.u.] -> [kcal/mol]                                       6.27509468713739E+02
 [a.u.] -> [Pa]                                             2.94210107994716E+13
 [a.u.] -> [bar]                                            2.94210107994716E+08
 [a.u.] -> [atm]                                            2.90362800883016E+08
 [a.u.] -> [eV]                                             2.72113838565563E+01
 [a.u.] -> [Hz]                                             6.57968392072181E+15
 [a.u.] -> [1/cm] (wave numbers)                            2.19474631370540E+05
 [a.u./Bohr**2] -> [1/cm]                                   5.14048714338585E+03
 
 MIXED_ENV| Number of created MPI groups:                                      1
 MIXED_ENV| Task to group correspondence:
  (   0 :    0)  (   1 :    0)  (   2 :    0)  (   3 :    0)
  (   4 :    0)  (   5 :    0)  (   6 :    0)  (   7 :    0)
          ----------------------------------------------------------------------
 COLVARS| COLVAR INPUT INDEX:        1
 COLVARS| ENERGY          >>> ATOMS:                                        all!
          ----------------------------------------------------------------------

 CELL_TOP| Volume [angstrom^3]:                                         2744.000
 CELL_TOP| Vector a [angstrom    14.000     0.000     0.000    |a| =      14.000
 CELL_TOP| Vector b [angstrom     0.000    14.000     0.000    |b| =      14.000
 CELL_TOP| Vector c [angstrom     0.000     0.000    14.000    |c| =      14.000
 CELL_TOP| Angle (b,c), alpha [degree]:                                   90.000
 CELL_TOP| Angle (a,c), beta  [degree]:                                   90.000
 CELL_TOP| Angle (a,b), gamma [degree]:                                   90.000
 CELL_TOP| Numerically orthorhombic:                                         YES

 CELL| Volume [angstrom^3]:                                             2744.000
 CELL| Vector a [angstrom]:      14.000     0.000     0.000    |a| =      14.000
 CELL| Vector b [angstrom]:       0.000    14.000     0.000    |b| =      14.000
 CELL| Vector c [angstrom]:       0.000     0.000    14.000    |c| =      14.000
 CELL| Angle (b,c), alpha [degree]:                                       90.000
 CELL| Angle (a,c), beta  [degree]:                                       90.000
 CELL| Angle (a,b), gamma [degree]:                                       90.000
 CELL| Numerically orthorhombic:                                             YES

 CELL_REF| Volume [angstrom^3]:                                         2744.000
 CELL_REF| Vector a [angstrom    14.000     0.000     0.000    |a| =      14.000
 CELL_REF| Vector b [angstrom     0.000    14.000     0.000    |b| =      14.000
 CELL_REF| Vector c [angstrom     0.000     0.000    14.000    |c| =      14.000
 CELL_REF| Angle (b,c), alpha [degree]:                                   90.000
 CELL_REF| Angle (a,c), beta  [degree]:                                   90.000
 CELL_REF| Angle (a,b), gamma [degree]:                                   90.000
 CELL_REF| Numerically orthorhombic:                                         YES


 MOLECULE KIND INFORMATION


 All atoms are their own molecule, skipping detailed information
 nspins, nimgs, gapw_xc           2           1 F 

 ####### CHECKS ON A and B #######
  E_A before:  -4.8231418744146328     
  E_B before:  -4.8231418744146346     
 ####### - #######
##Inside build_kohn_sham_matrix() before doing any function calls
 i). ELECTRON ONLY CALLS
 1. Electron_pw   3.0212444804907626     
 2. Electron_1c   4.8255367894012524E-002
 ########## After 1st poisson call pure hartree  (sum of above two quantities) ##########   3.0694998483847753     
 ########################
ii). NUCLEAR ONLY CALLS
 1. Nuclear_pw   8.7291903230065060     
 2. Nuclear_1c   3.4012736860041257     
iii). REGULAR CALL (ELECTRON+NUCLEAR)
 1. Hartree_pw   2.2622271945521515     
 2. Hartree_1c   2.4621174528202801     
 Regular: Before call to qs_vxc Regular_exc, exc1   0.0000000000000000        0.0000000000000000     
 Regular: After call to qs_vxc_create Regular_exc, exc1   0.0000000000000000        0.0000000000000000     
 iv). EXCHANGE ENERGY   -1.6295219206998008     
 v). POTENTIAL ENERGY FROM CORE HAMILTONIAN   -1.3421035090195872     
 vi). KINETIC ENERGY    4.7079305788874457     
 vii). SELF ENERGY   -11.283791670955125     
      
 E_NUC is   0.84667233805550701     
      
IN build_kohn_sham_matrix() CALLING qs_ks_atom(),updates single atom contributions due to gapw
Inside build_kohn_sham_matrix() after doing all function calls and evaluating energy
 CHECK ON A IS DONE, E_A after passing modified PA_hat density:  -4.8231418744146364     
##Inside build_kohn_sham_matrix() before doing any function calls
 i). ELECTRON ONLY CALLS
 1. Electron_pw   3.0212444804907550     
 2. Electron_1c   4.8255367894014300E-002
 ########## After 1st poisson call pure hartree  (sum of above two quantities) ##########   3.0694998483847691     
 ########################
ii). NUCLEAR ONLY CALLS
 1. Nuclear_pw   8.7291903230065060     
 2. Nuclear_1c   3.4012736860041257     
iii). REGULAR CALL (ELECTRON+NUCLEAR)
 1. Hartree_pw   2.2622271945521497     
 2. Hartree_1c   2.4621174528202801     
 Regular: Before call to qs_vxc Regular_exc, exc1   0.0000000000000000        0.0000000000000000     
 Regular: After call to qs_vxc_create Regular_exc, exc1   0.0000000000000000        0.0000000000000000     
 iv). EXCHANGE ENERGY   -1.6295219206997951     
 v). POTENTIAL ENERGY FROM CORE HAMILTONIAN   -1.3421035090195863     
 vi). KINETIC ENERGY    4.7079305788874413     
 vii). SELF ENERGY   -11.283791670955125     
      
 E_NUC is   0.84667233805550701     
      
IN build_kohn_sham_matrix() CALLING qs_ks_atom(),updates single atom contributions due to gapw
Inside build_kohn_sham_matrix() after doing all function calls and evaluating energy
 CHECK ON B IS DONE, E_B after passing modified PB_hat density:  -4.8231418744146355     
 DOING ANTI-SYMMETRIC PART OF VAB
##Inside build_kohn_sham_matrix() before doing any function calls
 i). ELECTRON ONLY CALLS
 1. Electron_pw   8.0424865745725869E-005
 2. Electron_1c   5.3436949750163167E-009
 ########## After 1st poisson call pure hartree  (sum of above two quantities) ##########   8.0430209440700881E-005
 ########################
ii). NUCLEAR ONLY CALLS
 1. Nuclear_pw   8.7291903230065060     
 2. Nuclear_1c   3.4012736860041257     
iii). REGULAR CALL (ELECTRON+NUCLEAR)
 1. Hartree_pw   8.7616949244871307     
 2. Hartree_1c   3.4017393491322183     
 Regular: Before call to qs_vxc Regular_exc, exc1   0.0000000000000000        0.0000000000000000     
 Regular: After call to qs_vxc_create Regular_exc, exc1   0.0000000000000000        0.0000000000000000     
 iv). EXCHANGE ENERGY   -4.8396817678261275E-002
 v). POTENTIAL ENERGY FROM CORE HAMILTONIAN    5.2282019247368479E-004
 vi). KINETIC ENERGY    7.9678262804708105E-003
 vii). SELF ENERGY   -11.283791670955125     
      
 E_NUC is   0.84667233805550701     
      
IN build_kohn_sham_matrix() CALLING qs_ks_atom(),updates single atom contributions due to gapw
Inside build_kohn_sham_matrix() after doing all function calls and evaluating energy
 DOING SYMMETRIC PART OF VAB
##Inside build_kohn_sham_matrix() before doing any function calls
 i). ELECTRON ONLY CALLS
 1. Electron_pw   7.0802678817362796E-002
 2. Electron_1c   1.0643168803288680E-003
 ########## After 1st poisson call pure hartree  (sum of above two quantities) ##########   7.1866995697691671E-002
 ########################
 ehartree, ehartree_1c after multiplying with DTPROD/DHPROD -0.44512154009098898       -6.6911362229510121E-003
 dtprod, dhprod are  -1.0000000000000002       0.15906369932780554     
 J2_AB is  -0.45181267631394006     
ii). NUCLEAR ONLY CALLS
 1. Nuclear_pw   8.7291903230065060     
 2. Nuclear_1c   3.4012736860041257     
iii). REGULAR CALL (ELECTRON+NUCLEAR)
 1. Hartree_pw   7.3176896118698265     
 2. Hartree_1c   3.2527683770381248     
 Regular: Before call to qs_vxc Regular_exc, exc1   0.0000000000000000        0.0000000000000000     
 Regular: After call to qs_vxc_create Regular_exc, exc1   0.0000000000000000        0.0000000000000000     
 iv). EXCHANGE ENERGY   -8.4204159556539732E-002
 v). POTENTIAL ENERGY FROM CORE HAMILTONIAN  -0.20283783141276335     
 vi). KINETIC ENERGY   0.69835791718585261     
 vii). SELF ENERGY   -11.283791670955125     
      
 E_NUC is   0.84667233805550701     
      
IN build_kohn_sham_matrix() CALLING qs_ks_atom(),updates single atom contributions due to gapw
 ########################
 #########  ET  #########
 ------------------------
 E_NUC  0.84667233805550701     
 HAA <a|H|a>  -5.6698142124701416     
 HBB <b|H|b>  -5.6698142124701416     
             
 <a|H1|b>   1.1363529300272839     
 <a|H2|b> -0.22669945419224716     
 ...<a|J2|b> -0.45181267631394006     
 ...<a|K2|b>  0.22511322212169291     
 HAB <a|H|b>  0.90965347583503675     
 SAB -0.15906369932780556     
 VAB   7.9941138548258895E-003
  VAB in different units 
 ------------------------
         0.21753090069668224      eV
          1754.5051914220387      1/cm
          5.0163821378789342      kcal/mol
          20.988542864885460      kJ/mol
          52598742391017.344      Hertz
 ------------------------
 ------------------------
 E+  -5.6605485252922731     
 E-  -5.6765367530028179     
 (E+ - E-)/2   7.9941138552723379E-003
         0.21753090070883072      eV
          1754.5051915200229      1/cm
          5.0163821381590843      kcal/mol
          20.988542866057610      kJ/mol
          52598742393954.836      Hertz
 ------------------------
 ------------------------
Inside build_kohn_sham_matrix() after doing all function calls and evaluating energy
 NO FORCE_EVAL section calculated the dipole

 ENERGY| Total FORCE_EVAL ( MIXED ) energy (a.u.):             0.000000000000002


 -------------------------------------------------------------------------------
 -                                                                             -
 -                                DBCSR STATISTICS                             -
 -                                                                             -
 -------------------------------------------------------------------------------
 COUNTER                                    TOTAL       BLAS       SMM       ACC
 flops     2 x     1 x     2                   64     100.0%      0.0%      0.0%
 flops     2 x     2 x     2                 1248     100.0%      0.0%      0.0%
 flops inhomo. stacks                         624     100.0%      0.0%      0.0%
 flops total                         1.936000E+03     100.0%      0.0%      0.0%
 flops max/rank                      1.248000E+03     100.0%      0.0%      0.0%
 matmuls inhomo. stacks                        78     100.0%      0.0%      0.0%
 matmuls total                                164     100.0%      0.0%      0.0%
 number of processed stacks                   108     100.0%      0.0%      0.0%
 average stack size                                     1.5       0.0       0.0
 marketing flops                     2.560000E+03
 -------------------------------------------------------------------------------
 # multiplications                             54
 max memory usage/rank             597.864448E+06
 # max total images/rank                        2
 # max 3D layers                                1
 # MPI messages exchanged                    3888
 MPI messages size (bytes):
  total size                        15.936000E+03
  min size                           0.000000E+00
  max size                          64.000000E+00
  average size                       4.098765E+00
 MPI breakdown and total messages size (bytes):
             size <=      128                3888                    15936
       128 < size <=     8192                   0                        0
      8192 < size <=    32768                   0                        0
     32768 < size <=   131072                   0                        0
    131072 < size <=  4194304                   0                        0
   4194304 < size <= 16777216                   0                        0
  16777216 < size                               0                        0
 -------------------------------------------------------------------------------

 *** WARNING in dbcsr/mm/dbcsr_mm.F:268 :: Using a non-square number of ***
 *** MPI ranks might lead to poor performance.                          ***
 *** Used ranks: 8                                                      ***
 *** Suggested: 9 16                                                    ***

 -------------------------------------------------------------------------------

 MEMORY| Estimated peak process memory [MiB]                                 571

 -------------------------------------------------------------------------------
 -                                                                             -
 -                         MESSAGE PASSING PERFORMANCE                         -
 -                                                                             -
 -------------------------------------------------------------------------------

 ROUTINE             CALLS      AVE VOLUME [Bytes]
 MP_Group              117
 MP_Bcast              406                   8594.
 MP_Allreduce         1710                   1029.
 MP_Sync               337
 MP_Alltoall          2538                2617000.
 MP_ISendRecv         3304                 185538.
 MP_Wait              8746
 MP_comm_split          53
 MP_ISend             3572                 494155.
 MP_IRecv             3468                 508972.
 MP_Recv                 2                     32.
 MP_Memory            3224
 -------------------------------------------------------------------------------


 -------------------------------------------------------------------------------
 -                                                                             -
 -                           R E F E R E N C E S                               -
 -                                                                             -
 -------------------------------------------------------------------------------
 
 CP2K version 6.1, the CP2K developers group (2018).
 CP2K is freely available from https://www.cp2k.org/ .

 Schuett, Ole; Messmer, Peter; Hutter, Juerg; VandeVondele, Joost. 
 Electronic Structure Calculations on Graphics Processing Units, John Wiley & Sons, Ltd, 173-190 (2016). 
 GPU-Accelerated Sparse Matrix-Matrix Multiplication for Linear Scaling Density Functional Theory.
 http://dx.doi.org/10.1002/9781118670712.ch8


 Borstnik, U; VandeVondele, J; Weber, V; Hutter, J. 
 PARALLEL COMPUTING, 40 (5-6), 47-58 (2014). 
 Sparse matrix multiplication: The distributed block-compressed sparse
 row library.
 http://dx.doi.org/10.1016/j.parco.2014.03.012


 Hutter, J; Iannuzzi, M; Schiffmann, F; VandeVondele, J. 
 WILEY INTERDISCIPLINARY REVIEWS-COMPUTATIONAL MOLECULAR SCIENCE, 4 (1), 15-25 (2014). 
 CP2K: atomistic simulations of condensed matter systems.
 http://dx.doi.org/10.1002/wcms.1159


 Guidon, M; Hutter, J; VandeVondele, J. 
 JOURNAL OF CHEMICAL THEORY AND COMPUTATION, 5 (11), 3010-3021 (2009). 
 Robust Periodic Hartree-Fock Exchange for Large-Scale Simulations Using
 Gaussian Basis Sets.
 http://dx.doi.org/10.1021/ct900494g


 Guidon, M; Schiffmann, F; Hutter, J; VandeVondele, J. 
 JOURNAL OF CHEMICAL PHYSICS, 128 (21), 214104 (2008). 
 Ab initio molecular dynamics using hybrid density functionals.
 http://dx.doi.org/10.1063/1.2931945


 Frigo, M; Johnson, SG. 
 PROCEEDINGS OF THE IEEE, 93 (2), 216-231 (2005). 
 The design and implementation of FFTW3.
 http://dx.doi.org/10.1109/JPROC.2004.840301


 Lippert, G; Hutter, J; Parrinello, M. 
 THEORETICAL CHEMISTRY ACCOUNTS, 103 (2), 124-140 (1999). 
 The Gaussian and augmented-plane-wave density functional method for ab
 initio molecular dynamics simulations.
 http://dx.doi.org/10.1007/s002140050523


 Krack, M; Parrinello, M. 
 PHYSICAL CHEMISTRY CHEMICAL PHYSICS, 2 (10), 2105-2112 (2000). 
 All-electron ab-initio molecular dynamics.
 http://dx.doi.org/10.1039/b001167n


 Martyna, GJ; Tuckerman, ME. 
 JOURNAL OF CHEMICAL PHYSICS, 110 (6), 2810-2821 (1999). 
 A reciprocal space based method for treating long range interactions in
 ab initio and force-field-based calculations in clusters.
 http://dx.doi.org/10.1063/1.477923


 -------------------------------------------------------------------------------
 -                                                                             -
 -                                T I M I N G                                  -
 -                                                                             -
 -------------------------------------------------------------------------------
 SUBROUTINE                       CALLS  ASD         SELF TIME        TOTAL TIME
                                MAXIMUM       AVERAGE  MAXIMUM  AVERAGE  MAXIMUM
 CP2K                                 1  1.0    0.041    0.050   21.194   21.195
 qs_energies                          2  2.0    0.000    0.000   17.810   17.811
 scf_env_do_scf                       2  3.0    0.000    0.000   17.063   17.067
 scf_env_do_scf_inner_loop           26  4.0    0.001    0.002   17.062   17.067
 pw_transfer                        708  8.8    0.030    0.032   13.372   13.429
 fft_wrap_pw1pw2                    594  9.9    0.004    0.005   13.105   13.157
 fft_wrap_pw1pw2_140                244 10.6    0.856    0.876   11.947   12.041
 qs_ks_update_qs_env                 30  4.6    0.001    0.001   10.785   10.791
 rebuild_ks_matrix                   30  5.6    0.000    0.000   10.783   10.789
 qs_ks_build_kohn_sham_matrix        30  6.6    0.017    0.022   10.783   10.789
 fft3d_ps                           594 11.9    7.250    7.397   10.094   10.152
 qs_rho_update_rho                   32  4.6    0.000    0.000    9.041    9.041
 calculate_rho_elec                  64  5.6    0.142    0.154    9.038    9.038
 density_rs2pw                       64  6.6    0.003    0.003    8.557    8.585
 sum_up_and_integrate                26  8.0    0.000    0.000    4.253    4.257
 integrate_v_rspace                  52  9.0    0.010    0.017    4.253    4.256
 potential_pw2rs                     52 10.0    0.006    0.006    4.238    4.243
 rs_pw_transfer                     538  9.1    0.006    0.006    4.086    4.113
 prepare_gapw_den                    38  7.1    0.003    0.004    2.803    2.814
 put_rho0_on_grid                    38  8.1    0.078    0.081    2.745    2.756
 rs_pw_transfer_RS2PW_140           104  9.1    1.417    1.422    1.817    1.837
 rs_pw_transfer_PW2RS_140            86 11.0    1.183    1.212    1.757    1.771
 yz_to_x                            348 12.3    1.244    1.252    1.669    1.706
 pw_gather_p                        348 11.3    1.311    1.334    1.311    1.334
 x_to_yz                            246 13.8    0.857    0.874    1.166    1.275
 pw_poisson_solve                    38  7.1    0.433    0.437    1.071    1.071
 qs_init_subsys                       2  2.0    0.002    0.002    0.918    0.918
 qs_env_setup                         2  3.0    0.000    0.000    0.909    0.910
 qs_env_rebuild_pw_env                4  3.5    0.000    0.000    0.908    0.909
 pw_env_rebuild                       2  5.0    0.001    0.001    0.908    0.908
 pw_grid_setup                       10  6.0    0.001    0.001    0.895    0.896
 pw_grid_setup_internal              10  7.0    0.025    0.025    0.894    0.895
 mp_alltoall_z22v                   594 13.9    0.734    0.836    0.734    0.836
 fft_wrap_pw1pw2_50                 116 11.1    0.062    0.071    0.747    0.793
 pw_grid_sort                        10  8.0    0.501    0.513    0.735    0.758
 pw_scatter_p                       246 12.8    0.745    0.749    0.745    0.749
 integrate_vhg0_rspace               30  7.6    0.002    0.003    0.740    0.745
 mp_waitany                        2280 11.0    0.682    0.728    0.682    0.728
 rs_grid_zero                       412  8.1    0.697    0.701    0.697    0.701
 init_scf_run                         2  3.0    0.000    0.000    0.592    0.592
 scf_env_initial_rho_setup            2  4.0    0.000    0.000    0.590    0.590
 pw_copy                            388 10.0    0.458    0.466    0.458    0.466
 pw_poisson_rebuild                  38  8.1    0.005    0.006    0.427    0.431
 MTin_create_screen_fn                2 10.0    0.017    0.017    0.422    0.426
 -------------------------------------------------------------------------------

 The number of warnings for this run is : 1
 
 -------------------------------------------------------------------------------
  **** **** ******  **  PROGRAM ENDED AT                 2019-07-25 10:38:10.005
 ***** ** ***  *** **   PROGRAM RAN ON            cpn-p28-36.cbls.ccr.buffalo.ed
 **    ****   ******    PROGRAM RAN BY                                  pavankum
 ***** **    ** ** **   PROGRAM PROCESS ID                                 71814
  **** **  *******  **  PROGRAM STOPPED IN /projects/academic/mdupuis2/pavan/VAB
                                           _calculation/results_for_paper/1.He2+
                                           /r_2.5
