 DBCSR| Multiplication driver                                               BLAS
 DBCSR| Multrec recursion limit                                              512
 DBCSR| Multiplication stack size                                           1000
 DBCSR| Maximum elements for images                                    UNLIMITED
 DBCSR| Multiplicative factor virtual images                                   1
 DBCSR| Multiplication size stacks                                             3
 DBCSR| Number of 3D layers                                               SINGLE
 DBCSR| Use MPI memory allocation                                              T
 DBCSR| Use RMA algorithm                                                      F
 DBCSR| Use Communication thread                                               T
 DBCSR| Communication thread load                                             87


  **** **** ******  **  PROGRAM STARTED AT               2020-04-19 19:09:22.834
 ***** ** ***  *** **   PROGRAM STARTED ON        cpn-u24-27.cbls.ccr.buffalo.ed
 **    ****   ******    PROGRAM STARTED BY                              pavankum
 ***** **    ** ** **   PROGRAM PROCESS ID                                236414
  **** **  *******  **  PROGRAM STARTED IN /projects/academic/mdupuis2/pavan/MOA
                                           /7.TiO2_pbe_plus_U10/ti_atoms/lowdin_
                                           at_mull_opt_geo

 CP2K| version string:                                          CP2K version 6.1
 CP2K| source code revision number:                                    svn:18464
 CP2K| cp2kflags: libint fftw3 libxc parallel mpi3 scalapack libderiv_max_am1=5 
 CP2K|            libint_max_am=6
 CP2K| is freely available from                            https://www.cp2k.org/
 CP2K| Program compiled at                          Fri Nov 30 14:17:09 EST 2018
 CP2K| Program compiled on                       srv-p22-12.cbls.ccr.buffalo.edu
 CP2K| Program compiled for                                                local
 CP2K| Data directory path    /projects/academic/mdupuis2/pavan/cp2k/cp2k-6.1/da
 CP2K| Input file name                                                 input.inp

 GLOBAL| Force Environment number                                              1
 GLOBAL| Basis set file name            /projects/academic/mdupuis2/pavan/BASIS_
 GLOBAL| Potential file name            /projects/academic/mdupuis2/pavan/POTENT
 GLOBAL| MM Potential file name                                     MM_POTENTIAL
 GLOBAL| Coordinate file name                                         ./opt0.xyz
 GLOBAL| Method name                                                        CP2K
 GLOBAL| Project name                                                    p_tio2_
 GLOBAL| Preferred FFT library                                             FFTW3
 GLOBAL| Preferred diagonalization lib.                                       SL
 GLOBAL| Run type                                                         ENERGY
 GLOBAL| All-to-all communication in single precision                          F
 GLOBAL| FFTs using library dependent lengths                                  T
 GLOBAL| Global print level                                               MEDIUM
 GLOBAL| Total number of message passing processes                           128
 GLOBAL| Number of threads for this process                                    1
 GLOBAL| This output is from process                                           0
 GLOBAL| CPU model name :  Intel(R) Xeon(R) Gold 6130 CPU @ 2.10GHz

 MEMORY| system memory details [Kb]
 MEMORY|                        rank 0           min           max       average
 MEMORY| MemTotal            196332636     196332628     196332636     196332633
 MEMORY| MemFree             140512020     117836252     140512020     128841909
 MEMORY| Buffers                428184        428184        541308        470931
 MEMORY| Cached               48839788      48839788      71525464      60498177
 MEMORY| Slab                  1080940       1029424       1098120       1073240
 MEMORY| SReclaimable           775300        733008        793208        773500
 MEMORY| MemLikelyFree       190555292     190555292     190621188     190584517


 *** Fundamental physical constants (SI units) ***

 *** Literature: B. J. Mohr and B. N. Taylor,
 ***             CODATA recommended values of the fundamental physical
 ***             constants: 2006, Web Version 5.1
 ***             http://physics.nist.gov/constants

 Speed of light in vacuum [m/s]                             2.99792458000000E+08
 Magnetic constant or permeability of vacuum [N/A**2]       1.25663706143592E-06
 Electric constant or permittivity of vacuum [F/m]          8.85418781762039E-12
 Planck constant (h) [J*s]                                  6.62606896000000E-34
 Planck constant (h-bar) [J*s]                              1.05457162825177E-34
 Elementary charge [C]                                      1.60217648700000E-19
 Electron mass [kg]                                         9.10938215000000E-31
 Electron g factor [ ]                                     -2.00231930436220E+00
 Proton mass [kg]                                           1.67262163700000E-27
 Fine-structure constant                                    7.29735253760000E-03
 Rydberg constant [1/m]                                     1.09737315685270E+07
 Avogadro constant [1/mol]                                  6.02214179000000E+23
 Boltzmann constant [J/K]                                   1.38065040000000E-23
 Atomic mass unit [kg]                                      1.66053878200000E-27
 Bohr radius [m]                                            5.29177208590000E-11

 *** Conversion factors ***

 [u] -> [a.u.]                                              1.82288848426455E+03
 [Angstrom] -> [Bohr] = [a.u.]                              1.88972613288564E+00
 [a.u.] = [Bohr] -> [Angstrom]                              5.29177208590000E-01
 [a.u.] -> [s]                                              2.41888432650478E-17
 [a.u.] -> [fs]                                             2.41888432650478E-02
 [a.u.] -> [J]                                              4.35974393937059E-18
 [a.u.] -> [N]                                              8.23872205491840E-08
 [a.u.] -> [K]                                              3.15774647902944E+05
 [a.u.] -> [kJ/mol]                                         2.62549961709828E+03
 [a.u.] -> [kcal/mol]                                       6.27509468713739E+02
 [a.u.] -> [Pa]                                             2.94210107994716E+13
 [a.u.] -> [bar]                                            2.94210107994716E+08
 [a.u.] -> [atm]                                            2.90362800883016E+08
 [a.u.] -> [eV]                                             2.72113838565563E+01
 [a.u.] -> [Hz]                                             6.57968392072181E+15
 [a.u.] -> [1/cm] (wave numbers)                            2.19474631370540E+05
 [a.u./Bohr**2] -> [1/cm]                                   5.14048714338585E+03
 

 CELL_TOP| Volume [angstrom^3]:                                         2867.349
 CELL_TOP| Vector a [angstrom    13.869     0.000     0.000    |a| =      13.869
 CELL_TOP| Vector b [angstrom     0.000    13.869     0.000    |b| =      13.869
 CELL_TOP| Vector c [angstrom     0.000     0.000    14.907    |c| =      14.907
 CELL_TOP| Angle (b,c), alpha [degree]:                                   90.000
 CELL_TOP| Angle (a,c), beta  [degree]:                                   90.000
 CELL_TOP| Angle (a,b), gamma [degree]:                                   90.000
 CELL_TOP| Numerically orthorhombic:                                         YES

 CELL| Volume [angstrom^3]:                                             2867.349
 CELL| Vector a [angstrom]:      13.869     0.000     0.000    |a| =      13.869
 CELL| Vector b [angstrom]:       0.000    13.869     0.000    |b| =      13.869
 CELL| Vector c [angstrom]:       0.000     0.000    14.907    |c| =      14.907
 CELL| Angle (b,c), alpha [degree]:                                       90.000
 CELL| Angle (a,c), beta  [degree]:                                       90.000
 CELL| Angle (a,b), gamma [degree]:                                       90.000
 CELL| Numerically orthorhombic:                                             YES

 CELL_REF| Volume [angstrom^3]:                                         2867.349
 CELL_REF| Vector a [angstrom    13.869     0.000     0.000    |a| =      13.869
 CELL_REF| Vector b [angstrom     0.000    13.869     0.000    |b| =      13.869
 CELL_REF| Vector c [angstrom     0.000     0.000    14.907    |c| =      14.907
 CELL_REF| Angle (b,c), alpha [degree]:                                   90.000
 CELL_REF| Angle (a,c), beta  [degree]:                                   90.000
 CELL_REF| Angle (a,b), gamma [degree]:                                   90.000
 CELL_REF| Numerically orthorhombic:                                         YES

 *******************************************************************************
 *******************************************************************************
 **                                                                           **
 **     #####                         ##              ##                      **
 **    ##   ##            ##          ##              ##                      **
 **   ##     ##                       ##            ######                    **
 **   ##     ##  ##   ##  ##   #####  ##  ##   ####   ##    #####    #####    **
 **   ##     ##  ##   ##  ##  ##      ## ##   ##      ##   ##   ##  ##   ##   **
 **   ##  ## ##  ##   ##  ##  ##      ####     ###    ##   ######   ######    **
 **    ##  ###   ##   ##  ##  ##      ## ##      ##   ##   ##       ##        **
 **     #######   #####   ##   #####  ##  ##  ####    ##    #####   ##        **
 **           ##                                                    ##        **
 **                                                                           **
 **                                                ... make the atoms dance   **
 **                                                                           **
 **            Copyright (C) by CP2K developers group (2000 - 2018)           **
 **                                                                           **
 *******************************************************************************

 DFT| Spin unrestricted (spin-polarized) Kohn-Sham calculation               UKS
 DFT| Multiplicity                                                             2
 DFT| Number of spin states                                                    2
 DFT| Charge                                                                  -1
 DFT| Self-interaction correction (SIC)                                       NO
 DFT| Cutoffs: density                                              1.000000E-10
 DFT|          gradient                                             1.000000E-10
 DFT|          tau                                                  1.000000E-10
 DFT|          cutoff_smoothing_range                               0.000000E+00
 DFT| XC density smoothing                                                  NONE
 DFT| XC derivatives                                                          PW

 DFT+U| Method                                                            LOWDIN
 DFT+U| Check atomic kind information for details
 FUNCTIONAL| ROUTINE=NEW
 FUNCTIONAL| PBE:
 FUNCTIONAL| J.P.Perdew, K.Burke, M.Ernzerhof, Phys. Rev. Letter, vol. 77, n 18,
 FUNCTIONAL|  pp. 3865-3868, (1996){spin polarized}                             

 QS| Method:                                                                 GPW
 QS| Density plane wave grid type                        NON-SPHERICAL FULLSPACE
 QS| Number of grid levels:                                                   10
 QS| Density cutoff [a.u.]:                                                325.0
 QS| Multi grid cutoff [a.u.]: 1) grid level                               325.0
 QS|                           2) grid level                               108.3
 QS|                           3) grid level                                36.1
 QS|                           4) grid level                                12.0
 QS|                           5) grid level                                 4.0
 QS|                           6) grid level                                 1.3
 QS|                           7) grid level                                 0.4
 QS|                           8) grid level                                 0.1
 QS|                           9) grid level                                 0.0
 QS|                          10) grid level                                 0.0
 QS| Grid level progression factor:                                          3.0
 QS| Relative density cutoff [a.u.]:                                        30.0
 QS| Consistent realspace mapping and integration 
 QS| Interaction thresholds: eps_pgf_orb:                                1.0E-12
 QS|                         eps_filter_matrix:                          0.0E+00
 QS|                         eps_core_charge:                            1.0E-14
 QS|                         eps_rho_gspace:                             1.0E-12
 QS|                         eps_rho_rspace:                             1.0E-12
 QS|                         eps_gvg_rspace:                             1.0E-06
 QS|                         eps_ppl:                                    1.0E-02
 QS|                         eps_ppnl:                                   1.0E-08


 ATOMIC KIND INFORMATION

  1. Atomic kind: Ti                                    Number of atoms:      90

     Orbital Basis Set                                         SZV-MOLOPT-SR-GTH

       Number of orbital shell sets:                                           1
       Number of orbital shells:                                               4
       Number of primitive Cartesian functions:                                6
       Number of Cartesian basis functions:                                   11
       Number of spherical basis functions:                                   10
       Norm type:                                                              2

       Normalised Cartesian orbitals:

                        Set   Shell   Orbital            Exponent    Coefficient

                          1       1    2s                7.884570       0.015554
                                                         3.894698       0.963603
                                                         1.513589      -0.631435
                                                         0.596768      -0.343022
                                                         0.222222      -0.006534
                                                         0.077078       0.007652

                          1       2    3s                7.884570      -0.009340
                                                         3.894698       0.212624
                                                         1.513589      -0.258368
                                                         0.596768      -0.226206
                                                         0.222222       0.039438
                                                         0.077078       0.107179

                          1       3    3px               7.884570      -2.034794
                                                         3.894698       0.782008
                                                         1.513589       1.253903
                                                         0.596768       0.347823
                                                         0.222222       0.016778
                                                         0.077078      -0.000433
                          1       3    3py               7.884570      -2.034794
                                                         3.894698       0.782008
                                                         1.513589       1.253903
                                                         0.596768       0.347823
                                                         0.222222       0.016778
                                                         0.077078      -0.000433
                          1       3    3pz               7.884570      -2.034794
                                                         3.894698       0.782008
                                                         1.513589       1.253903
                                                         0.596768       0.347823
                                                         0.222222       0.016778
                                                         0.077078      -0.000433

                          1       4    4dx2              7.884570       3.047350
                                                         3.894698       3.289529
                                                         1.513589       1.060616
                                                         0.596768       0.249930
                                                         0.222222       0.038806
                                                         0.077078       0.002319
                          1       4    4dxy              7.884570       5.278165
                                                         3.894698       5.697631
                                                         1.513589       1.837041
                                                         0.596768       0.432892
                                                         0.222222       0.067214
                                                         0.077078       0.004017
                          1       4    4dxz              7.884570       5.278165
                                                         3.894698       5.697631
                                                         1.513589       1.837041
                                                         0.596768       0.432892
                                                         0.222222       0.067214
                                                         0.077078       0.004017
                          1       4    4dy2              7.884570       3.047350
                                                         3.894698       3.289529
                                                         1.513589       1.060616
                                                         0.596768       0.249930
                                                         0.222222       0.038806
                                                         0.077078       0.002319
                          1       4    4dyz              7.884570       5.278165
                                                         3.894698       5.697631
                                                         1.513589       1.837041
                                                         0.596768       0.432892
                                                         0.222222       0.067214
                                                         0.077078       0.004017
                          1       4    4dz2              7.884570       3.047350
                                                         3.894698       3.289529
                                                         1.513589       1.060616
                                                         0.596768       0.249930
                                                         0.222222       0.038806
                                                         0.077078       0.002319

     GTH Potential information for                                   GTH-PBE-q12

       Description:                       Goedecker-Teter-Hutter pseudopotential
                                           Goedecker et al., PRB 54, 1703 (1996)
                                          Hartwigsen et al., PRB 58, 3641 (1998)
                                                      Krack, TCA 114, 145 (2005)

       Gaussian exponent of the core charge distribution:               3.462604
       Electronic configuration (s p d ...):                           4   6   2

       Parameters of the local part of the GTH pseudopotential:

                          rloc        C1          C2          C3          C4
                        0.380000    8.711442   -0.700287

       Parameters of the non-local part of the GTH pseudopotential:

                   l      r(l)      h(i,j,l)

                   0    0.337771    2.575264    3.692971
                                    3.692971   -4.767605
                   1    0.242531   -4.630541    8.870875
                                    8.870875  -10.496161
                   2    0.243317   -9.406653

     A DFT+U correction is applied to atoms of this atomic kind:
       Angular quantum momentum number L:                                      2
       U(eff) = (U - J) value in [eV]:                                     9.987

  2. Atomic kind: O                                     Number of atoms:     180

     Orbital Basis Set                                            SZV-MOLOPT-GTH

       Number of orbital shell sets:                                           1
       Number of orbital shells:                                               2
       Number of primitive Cartesian functions:                                7
       Number of Cartesian basis functions:                                    4
       Number of spherical basis functions:                                    4
       Norm type:                                                              2

       Normalised Cartesian orbitals:

                        Set   Shell   Orbital            Exponent    Coefficient

                          1       1    2s               12.015955      -0.284499
                                                         5.108150      -0.322498
                                                         2.048398       0.148191
                                                         0.832382       0.295475
                                                         0.352316       0.150829
                                                         0.142977       0.015788
                                                         0.046761      -0.000019

                          1       2    3px              12.015955       1.192141
                                                         5.108150       1.354170
                                                         2.048398       0.897267
                                                         0.832382       0.408839
                                                         0.352316       0.116648
                                                         0.142977       0.022184
                                                         0.046761       0.000308
                          1       2    3py              12.015955       1.192141
                                                         5.108150       1.354170
                                                         2.048398       0.897267
                                                         0.832382       0.408839
                                                         0.352316       0.116648
                                                         0.142977       0.022184
                                                         0.046761       0.000308
                          1       2    3pz              12.015955       1.192141
                                                         5.108150       1.354170
                                                         2.048398       0.897267
                                                         0.832382       0.408839
                                                         0.352316       0.116648
                                                         0.142977       0.022184
                                                         0.046761       0.000308

     GTH Potential information for                                    GTH-PBE-q6

       Description:                       Goedecker-Teter-Hutter pseudopotential
                                           Goedecker et al., PRB 54, 1703 (1996)
                                          Hartwigsen et al., PRB 58, 3641 (1998)
                                                      Krack, TCA 114, 145 (2005)

       Gaussian exponent of the core charge distribution:               8.360253
       Electronic configuration (s p d ...):                               2   4

       Parameters of the local part of the GTH pseudopotential:

                          rloc        C1          C2          C3          C4
                        0.244554  -16.667215    2.487311

       Parameters of the non-local part of the GTH pseudopotential:

                   l      r(l)      h(i,j,l)

                   0    0.220956   18.337458
                   1    0.211332


 MOLECULE KIND INFORMATION


 All atoms are their own molecule, skipping detailed information


 TOTAL NUMBERS AND MAXIMUM NUMBERS

  Total number of            - Atomic kinds:                                   2
                             - Atoms:                                        270
                             - Shell sets:                                   270
                             - Shells:                                       720
                             - Primitive Cartesian functions:               1800
                             - Cartesian basis functions:                   1710
                             - Spherical basis functions:                   1620

  Maximum angular momentum of- Orbital basis functions:                        2
                             - Local part of the GTH pseudopotential:          2
                             - Non-local part of the GTH pseudopotential:      3


 MODULE QUICKSTEP:  ATOMIC COORDINATES IN angstrom

  Atom  Kind  Element       X           Y           Z          Z(eff)       Mass

       1     1 Ti  22    0.000982   -0.000043    0.000115     12.00      47.8670
       2     1 Ti  22    2.313577    2.309377    1.487863     12.00      47.8670
       3     1 Ti  22    4.632894    0.009893    0.000097     12.00      47.8670
       4     1 Ti  22    6.934586    2.311580    1.502017     12.00      47.8670
       5     1 Ti  22    9.243202    0.002476    0.000100     12.00      47.8670
       6     1 Ti  22   11.555436    2.313588    1.487719     12.00      47.8670
       7     1 Ti  22   -0.000761    4.623190    0.000115     12.00      47.8670
       8     1 Ti  22    2.312394    6.933827    1.487282     12.00      47.8670
       9     1 Ti  22    4.625477    4.620198    0.000100     12.00      47.8670
      10     1 Ti  22    6.936590    6.932433    1.487719     12.00      47.8670
      11     1 Ti  22    9.236256    4.613254    0.000097     12.00      47.8670
      12     1 Ti  22   11.554576    6.931569    1.488705     12.00      47.8670
      13     1 Ti  22    0.000068    9.246066    0.000106     12.00      47.8670
      14     1 Ti  22    2.314550   11.560549    1.488717     12.00      47.8670
      15     1 Ti  22    4.622961    9.246982    0.000115     12.00      47.8670
      16     1 Ti  22    6.932381   11.559574    1.487863     12.00      47.8670
      17     1 Ti  22    9.246190    9.245236    0.000115     12.00      47.8670
      18     1 Ti  22   11.556830   11.558390    1.487282     12.00      47.8670
      19     1 Ti  22   -0.001330    0.001906    2.975869     12.00      47.8670
      20     1 Ti  22    2.315522    2.306789    4.466067     12.00      47.8670
      21     1 Ti  22    4.630897    0.007890    2.977546     12.00      47.8670
      22     1 Ti  22    6.934707    2.311693    4.501535     12.00      47.8670
      23     1 Ti  22    9.247214   -0.000605    2.980075     12.00      47.8670
      24     1 Ti  22   11.554682    2.317431    4.465933     12.00      47.8670
      25     1 Ti  22    0.001909    4.621677    2.975862     12.00      47.8670
      26     1 Ti  22    2.313888    6.932790    4.465607     12.00      47.8670
      27     1 Ti  22    4.622401    4.624207    2.980074     12.00      47.8670
      28     1 Ti  22    6.940434    6.931683    4.465932     12.00      47.8670
      29     1 Ti  22    9.238370    4.615367    2.977545     12.00      47.8670
      30     1 Ti  22   11.554464    6.931435    4.469262     12.00      47.8670
      31     1 Ti  22    0.000087    9.246082    2.977076     12.00      47.8670
      32     1 Ti  22    2.314753   11.560753    4.469250     12.00      47.8670
      33     1 Ti  22    4.624902    9.244664    2.975868     12.00      47.8670
      34     1 Ti  22    6.929810   11.561488    4.466065     12.00      47.8670
      35     1 Ti  22    9.244689    9.247902    2.975859     12.00      47.8670
      36     1 Ti  22   11.555805   11.559886    4.465605     12.00      47.8670
      37     1 Ti  22    0.000379   -0.000126    5.957740     12.00      47.8670
      38     1 Ti  22    2.311367    2.313083    7.453621     12.00      47.8670
      39     1 Ti  22    4.637946    0.014901    5.958511     12.00      47.8670
      40     1 Ti  22    6.934955    2.311940    7.453531     12.00      47.8670
      41     1 Ti  22    9.242686    0.006077    5.964862     12.00      47.8670
      42     1 Ti  22   11.560247    2.312582    7.453621     12.00      47.8670
      43     1 Ti  22    0.001970    4.625506    5.957875     12.00      47.8670
      44     1 Ti  22    2.313423    6.935726    7.453622     12.00      47.8670
      45     1 Ti  22    4.629085    4.619675    5.964862     12.00      47.8670
      46     1 Ti  22    6.935572    6.937241    7.453621     12.00      47.8670
      47     1 Ti  22    9.231603    4.608604    5.958498     12.00      47.8670
      48     1 Ti  22   11.549186    6.926149    7.453626     12.00      47.8670
      49     1 Ti  22    0.000140    9.246131    5.959069     12.00      47.8670
      50     1 Ti  22    2.320122   11.566120    7.453626     12.00      47.8670
      51     1 Ti  22    4.622883    9.246388    5.957740     12.00      47.8670
      52     1 Ti  22    6.936148   11.557331    7.453621     12.00      47.8670
      53     1 Ti  22    9.248533    9.247929    5.957871     12.00      47.8670
      54     1 Ti  22   11.558716   11.559392    7.453622     12.00      47.8670
      55     1 Ti  22    0.000378   -0.000121    8.949482     12.00      47.8670
      56     1 Ti  22    2.315527    2.306787   10.441182     12.00      47.8670
      57     1 Ti  22    4.637962    0.014917    8.948678     12.00      47.8670
      58     1 Ti  22    6.934707    2.311693   10.405547     12.00      47.8670
      59     1 Ti  22    9.242677    0.006084    8.942321     12.00      47.8670
      60     1 Ti  22   11.554675    2.317431   10.441315     12.00      47.8670
      61     1 Ti  22    0.001971    4.625502    8.949347     12.00      47.8670
      62     1 Ti  22    2.313895    6.932783   10.441642     12.00      47.8670
      63     1 Ti  22    4.629092    4.619666    8.942321     12.00      47.8670
      64     1 Ti  22    6.940434    6.931676   10.441316     12.00      47.8670
      65     1 Ti  22    9.231587    4.608588    8.948691     12.00      47.8670
      66     1 Ti  22   11.554456    6.931428   10.437984     12.00      47.8670
      67     1 Ti  22    0.000140    9.246131    8.948141     12.00      47.8670
      68     1 Ti  22    2.314759   11.560759   10.437996     12.00      47.8670
      69     1 Ti  22    4.622888    9.246387    8.949483     12.00      47.8670
      70     1 Ti  22    6.929808   11.561494   10.441184     12.00      47.8670
      71     1 Ti  22    9.248529    9.247931    8.949351     12.00      47.8670
      72     1 Ti  22   11.555797   11.559893   10.441644     12.00      47.8670
      73     1 Ti  22   -0.001330    0.001908   11.931360     12.00      47.8670
      74     1 Ti  22    2.313578    2.309374   13.419391     12.00      47.8670
      75     1 Ti  22    4.630909    0.007903   11.929646     12.00      47.8670
      76     1 Ti  22    6.934585    2.311580   13.405085     12.00      47.8670
      77     1 Ti  22    9.247213   -0.000605   11.927119     12.00      47.8670
      78     1 Ti  22   11.555436    2.313592   13.419532     12.00      47.8670
      79     1 Ti  22    0.001908    4.621675   11.931367     12.00      47.8670
      80     1 Ti  22    2.312395    6.933825   13.419971     12.00      47.8670
      81     1 Ti  22    4.622400    4.624207   11.927120     12.00      47.8670
      82     1 Ti  22    6.936594    6.932432   13.419533     12.00      47.8670
      83     1 Ti  22    9.238358    4.615354   11.929646     12.00      47.8670
      84     1 Ti  22   11.554573    6.931565   13.418539     12.00      47.8670
      85     1 Ti  22    0.000087    9.246082   11.930135     12.00      47.8670
      86     1 Ti  22    2.314553   11.560553   13.418527     12.00      47.8670
      87     1 Ti  22    4.624903    9.244664   11.931361     12.00      47.8670
      88     1 Ti  22    6.932378   11.559575   13.419390     12.00      47.8670
      89     1 Ti  22    9.244688    9.247901   11.931370     12.00      47.8670
      90     1 Ti  22   11.556829   11.558391   13.419971     12.00      47.8670
      91     2 O    8    1.408646    1.409726   -0.000006      6.00      15.9994
      92     2 O    8    3.212875    3.213159   -0.000005      6.00      15.9994
      93     2 O    8    0.902563    3.720958    1.486735      6.00      15.9994
      94     2 O    8    3.719080    0.902492    1.485764      6.00      15.9994
      95     2 O    8    6.030825    1.407825   -0.000006      6.00      15.9994
      96     2 O    8    7.838257    3.215256   -0.000006      6.00      15.9994
      97     2 O    8    5.522874    3.723189    1.486224      6.00      15.9994
      98     2 O    8    8.346190    0.899873    1.486224      6.00      15.9994
      99     2 O    8   10.656177    1.409896   -0.000005      6.00      15.9994
     100     2 O    8   12.460427    3.213321   -0.000006      6.00      15.9994
     101     2 O    8   10.150003    3.720588    1.485772      6.00      15.9994
     102     2 O    8   12.966535    0.902122    1.486716      6.00      15.9994
     103     2 O    8    1.409545    6.032315   -0.000006      6.00      15.9994
     104     2 O    8    3.213744    7.836533   -0.000006      6.00      15.9994
     105     2 O    8    0.902709    8.343336    1.486676      6.00      15.9994
     106     2 O    8    3.719825    5.526256    1.486524      6.00      15.9994
     107     2 O    8    6.032896    6.033176   -0.000005      6.00      15.9994
     108     2 O    8    7.836322    7.837426   -0.000006      6.00      15.9994
     109     2 O    8    5.525122    8.343534    1.486716      6.00      15.9994
     110     2 O    8    8.343589    5.527002    1.485772      6.00      15.9994
     111     2 O    8   10.655904    6.032903   -0.000006      6.00      15.9994
     112     2 O    8   12.459997    7.836996   -0.000008      6.00      15.9994
     113     2 O    8   10.146687    8.345205    1.486760      6.00      15.9994
     114     2 O    8   12.968206    5.523686    1.486760      6.00      15.9994
     115     2 O    8    1.409052   10.655051   -0.000008      6.00      15.9994
     116     2 O    8    3.213160   12.459160   -0.000006      6.00      15.9994
     117     2 O    8    0.900879   12.968393    1.486748      6.00      15.9994
     118     2 O    8    3.722393   10.146879    1.486749      6.00      15.9994
     119     2 O    8    6.032727   10.654645   -0.000006      6.00      15.9994
     120     2 O    8    7.836160   12.458873   -0.000005      6.00      15.9994
     121     2 O    8    5.525493   12.965078    1.485763      6.00      15.9994
     122     2 O    8    8.343960   10.148562    1.486736      6.00      15.9994
     123     2 O    8   10.655316   10.655544   -0.000006      6.00      15.9994
     124     2 O    8   12.459534   12.459744   -0.000006      6.00      15.9994
     125     2 O    8   10.149257   12.965823    1.486523      6.00      15.9994
     126     2 O    8   12.966337   10.148709    1.486676      6.00      15.9994
     127     2 O    8    1.407644    1.410280    2.973214      6.00      15.9994
     128     2 O    8    3.212176    3.213030    2.974354      6.00      15.9994
     129     2 O    8    0.901523    3.720583    4.464784      6.00      15.9994
     130     2 O    8    3.709922    0.898068    4.456310      6.00      15.9994
     131     2 O    8    6.029456    1.406452    2.964312      6.00      15.9994
     132     2 O    8    7.839715    3.216714    2.964323      6.00      15.9994
     133     2 O    8    5.520536    3.725644    4.460598      6.00      15.9994
     134     2 O    8    8.348651    0.897534    4.460594      6.00      15.9994
     135     2 O    8   10.656956    1.410090    2.974454      6.00      15.9994
     136     2 O    8   12.461561    3.212874    2.973174      6.00      15.9994
     137     2 O    8   10.159621    3.725265    4.456251      6.00      15.9994
     138     2 O    8   12.967878    0.902840    4.464638      6.00      15.9994
     139     2 O    8    1.409525    6.032238    2.974324      6.00      15.9994
     140     2 O    8    3.213829    7.836523    2.974378      6.00      15.9994
     141     2 O    8    0.902499    8.343480    4.463434      6.00      15.9994
     142     2 O    8    3.718277    5.527840    4.461969      6.00      15.9994
     143     2 O    8    6.033091    6.033955    2.974456      6.00      15.9994
     144     2 O    8    7.835875    7.838559    2.973174      6.00      15.9994
     145     2 O    8    5.525842    8.344878    4.464639      6.00      15.9994
     146     2 O    8    8.348265    5.536619    4.456252      6.00      15.9994
     147     2 O    8   10.657134    6.034132    2.972655      6.00      15.9994
     148     2 O    8   12.460175    7.837173    2.974036      6.00      15.9994
     149     2 O    8   10.146435    8.345522    4.464228      6.00      15.9994
     150     2 O    8   12.968525    5.523433    4.464228      6.00      15.9994
     151     2 O    8    1.408873   10.654872    2.974035      6.00      15.9994
     152     2 O    8    3.211990   12.457990    2.972619      6.00      15.9994
     153     2 O    8    0.900712   12.968775    4.464062      6.00      15.9994
     154     2 O    8    3.722777   10.146713    4.464064      6.00      15.9994
     155     2 O    8    6.033281   10.653640    2.973214      6.00      15.9994
     156     2 O    8    7.836031   12.458173    2.974357      6.00      15.9994
     157     2 O    8    5.521067   12.955907    4.456309      6.00      15.9994
     158     2 O    8    8.343584   10.147518    4.464785      6.00      15.9994
     159     2 O    8   10.655240   10.655524    2.974324      6.00      15.9994
     160     2 O    8   12.459525   12.459828    2.974377      6.00      15.9994
     161     2 O    8   10.150844   12.964276    4.461968      6.00      15.9994
     162     2 O    8   12.966483   10.148498    4.463433      6.00      15.9994
     163     2 O    8    1.409018    1.409474    5.959876      6.00      15.9994
     164     2 O    8    3.212676    3.212507    5.953793      6.00      15.9994
     165     2 O    8    0.904139    3.721476    7.453480      6.00      15.9994
     166     2 O    8    3.723682    0.905697    7.453493      6.00      15.9994
     167     2 O    8    5.997595    1.374556    5.881347      6.00      15.9994
     168     2 O    8    7.872129    3.249117    5.880998      6.00      15.9994
     169     2 O    8    5.504214    3.743242    7.453501      6.00      15.9994
     170     2 O    8    8.366251    0.881201    7.453501      6.00      15.9994
     171     2 O    8   10.656680    1.410678    5.953309      6.00      15.9994
     172     2 O    8   12.460238    3.213686    5.960494      6.00      15.9994
     173     2 O    8   10.145600    3.717550    7.453493      6.00      15.9994
     174     2 O    8   12.965301    0.901711    7.453480      6.00      15.9994
     175     2 O    8    1.408962    6.032790    5.956390      6.00      15.9994
     176     2 O    8    3.213485    7.837267    5.955603      6.00      15.9994
     177     2 O    8    0.902683    8.343928    7.453477      6.00      15.9994
     178     2 O    8    3.713577    5.533484    7.453476      6.00      15.9994
     179     2 O    8    6.033679    6.033678    5.953307      6.00      15.9994
     180     2 O    8    7.836689    7.837236    5.960500      6.00      15.9994
     181     2 O    8    5.524708    8.342295    7.453480      6.00      15.9994
     182     2 O    8    8.340548    5.522596    7.453493      6.00      15.9994
     183     2 O    8   10.660156    6.037153    5.955283      6.00      15.9994
     184     2 O    8   12.461278    7.838273    5.955090      6.00      15.9994
     185     2 O    8   10.147152    8.345301    7.453479      6.00      15.9994
     186     2 O    8   12.968306    5.524147    7.453479      6.00      15.9994
     187     2 O    8    1.407906   10.653905    5.954848      6.00      15.9994
     188     2 O    8    3.209034   12.455032    5.955335      6.00      15.9994
     189     2 O    8    0.900908   12.968098    7.453480      6.00      15.9994
     190     2 O    8    3.722097   10.146909    7.453480      6.00      15.9994
     191     2 O    8    6.032480   10.655010    5.959889      6.00      15.9994
     192     2 O    8    7.835512   12.458669    5.953786      6.00      15.9994
     193     2 O    8    5.528707   12.969677    7.453493      6.00      15.9994
     194     2 O    8    8.344485   10.150139    7.453480      6.00      15.9994
     195     2 O    8   10.655795   10.654957    5.956386      6.00      15.9994
     196     2 O    8   12.460269   12.459483    5.955605      6.00      15.9994
     197     2 O    8   10.156483   12.959567    7.453476      6.00      15.9994
     198     2 O    8   12.966927   10.148678    7.453477      6.00      15.9994
     199     2 O    8    1.409017    1.409474    8.947094      6.00      15.9994
     200     2 O    8    3.212672    3.212507    8.953186      6.00      15.9994
     201     2 O    8    0.901522    3.720585   10.442194      6.00      15.9994
     202     2 O    8    3.709922    0.898068   10.450681      6.00      15.9994
     203     2 O    8    5.997597    1.374558    9.025656      6.00      15.9994
     204     2 O    8    7.872127    3.249115    9.026005      6.00      15.9994
     205     2 O    8    5.520533    3.725648   10.446388      6.00      15.9994
     206     2 O    8    8.348654    0.897531   10.446392      6.00      15.9994
     207     2 O    8   10.656683    1.410678    8.953668      6.00      15.9994
     208     2 O    8   12.460240    3.213686    8.946477      6.00      15.9994
     209     2 O    8   10.159620    3.725265   10.450740      6.00      15.9994
     210     2 O    8   12.967879    0.902839   10.442340      6.00      15.9994
     211     2 O    8    1.408963    6.032791    8.950578      6.00      15.9994
     212     2 O    8    3.213484    7.837266    8.951369      6.00      15.9994
     213     2 O    8    0.902497    8.343482   10.443542      6.00      15.9994
     214     2 O    8    3.718278    5.527839   10.445010      6.00      15.9994
     215     2 O    8    6.033679    6.033682    8.953671      6.00      15.9994
     216     2 O    8    7.836689    7.837238    8.946471      6.00      15.9994
     217     2 O    8    5.525841    8.344879   10.442339      6.00      15.9994
     218     2 O    8    8.348265    5.536619   10.450738      6.00      15.9994
     219     2 O    8   10.660160    6.037157    8.951698      6.00      15.9994
     220     2 O    8   12.461277    7.838272    8.951871      6.00      15.9994
     221     2 O    8   10.146434    8.345524   10.442751      6.00      15.9994
     222     2 O    8   12.968527    5.523433   10.442751      6.00      15.9994
     223     2 O    8    1.407907   10.653906    8.952113      6.00      15.9994
     224     2 O    8    3.209030   12.455028    8.951647      6.00      15.9994
     225     2 O    8    0.900711   12.968776   10.442917      6.00      15.9994
     226     2 O    8    3.722778   10.146712   10.442915      6.00      15.9994
     227     2 O    8    6.032480   10.655009    8.947081      6.00      15.9994
     228     2 O    8    7.835512   12.458666    8.953193      6.00      15.9994
     229     2 O    8    5.521066   12.955907   10.450681      6.00      15.9994
     230     2 O    8    8.343585   10.147517   10.442193      6.00      15.9994
     231     2 O    8   10.655795   10.654958    8.950582      6.00      15.9994
     232     2 O    8   12.460267   12.459483    8.951367      6.00      15.9994
     233     2 O    8   10.150844   12.964277   10.445011      6.00      15.9994
     234     2 O    8   12.966484   10.148496   10.443543      6.00      15.9994
     235     2 O    8    1.407644    1.410281   11.933773      6.00      15.9994
     236     2 O    8    3.212174    3.213029   11.932633      6.00      15.9994
     237     2 O    8    0.902563    3.720959   13.420252      6.00      15.9994
     238     2 O    8    3.719080    0.902492   13.421227      6.00      15.9994
     239     2 O    8    6.029458    1.406454   11.942680      6.00      15.9994
     240     2 O    8    7.839713    3.216712   11.942669      6.00      15.9994
     241     2 O    8    5.522872    3.723191   13.420764      6.00      15.9994
     242     2 O    8    8.346192    0.899871   13.420764      6.00      15.9994
     243     2 O    8   10.656958    1.410091   11.932532      6.00      15.9994
     244     2 O    8   12.461561    3.212873   11.933813      6.00      15.9994
     245     2 O    8   10.150003    3.720589   13.421219      6.00      15.9994
     246     2 O    8   12.966535    0.902121   13.420271      6.00      15.9994
     247     2 O    8    1.409526    6.032239   11.932660      6.00      15.9994
     248     2 O    8    3.213828    7.836523   11.932607      6.00      15.9994
     249     2 O    8    0.902709    8.343337   13.420310      6.00      15.9994
     250     2 O    8    3.719824    5.526256   13.420462      6.00      15.9994
     251     2 O    8    6.033092    6.033957   11.932529      6.00      15.9994
     252     2 O    8    7.835875    7.838559   11.933813      6.00      15.9994
     253     2 O    8    5.525121    8.343534   13.420271      6.00      15.9994
     254     2 O    8    8.343589    5.527002   13.421219      6.00      15.9994
     255     2 O    8   10.657136    6.034134   11.934331      6.00      15.9994
     256     2 O    8   12.460175    7.837172   11.932945      6.00      15.9994
     257     2 O    8   10.146686    8.345205   13.420227      6.00      15.9994
     258     2 O    8   12.968207    5.523685   13.420227      6.00      15.9994
     259     2 O    8    1.408874   10.654873   11.932945      6.00      15.9994
     260     2 O    8    3.211987   12.457987   11.934367      6.00      15.9994
     261     2 O    8    0.900879   12.968394   13.420238      6.00      15.9994
     262     2 O    8    3.722394   10.146878   13.420238      6.00      15.9994
     263     2 O    8    6.033282   10.653640   11.933773      6.00      15.9994
     264     2 O    8    7.836030   12.458172   11.932630      6.00      15.9994
     265     2 O    8    5.525493   12.965078   13.421227      6.00      15.9994
     266     2 O    8    8.343960   10.148562   13.420251      6.00      15.9994
     267     2 O    8   10.655240   10.655524   11.932661      6.00      15.9994
     268     2 O    8   12.459524   12.459828   11.932608      6.00      15.9994
     269     2 O    8   10.149257   12.965823   13.420463      6.00      15.9994
     270     2 O    8   12.966337   10.148708   13.420310      6.00      15.9994




 SCF PARAMETERS         Density guess:                                   RESTART
                        --------------------------------------------------------
                        max_scf:                                             500
                        max_scf_history:                                       0
                        max_diis:                                              4
                        --------------------------------------------------------
                        eps_scf:                                        1.00E-06
                        eps_scf_history:                                0.00E+00
                        eps_diis:                                       5.00E-01
                        eps_eigval:                                     1.00E-05
                        --------------------------------------------------------
                        level_shift [a.u.]:                                 0.00
                        --------------------------------------------------------
                        Mixing method:                            BROYDEN_MIXING
                                                charge density mixing in g-space
                        --------------------------------------------------------
                        Outer loop SCF in use 
                        No variables optimised in outer loop
                        eps_scf                                         1.00E-06
                        max_scf                                              500
                        No outer loop optimization
                        step_size                                       5.00E-01

 PW_GRID| Information for grid number                                          1
 PW_GRID| Grid distributed over                                   128 processors
 PW_GRID| Real space group dimensions                                   128    1
 PW_GRID| the grid is blocked:                                                NO
 PW_GRID| Cutoff [a.u.]                                                    325.0
 PW_GRID| spherical cutoff:                                                   NO
 PW_GRID|   Bounds   1           -108     107                Points:         216
 PW_GRID|   Bounds   2           -108     107                Points:         216
 PW_GRID|   Bounds   3           -115     115                Points:         231
 PW_GRID| Volume element (a.u.^3)  0.1795E-02     Volume (a.u.^3)     19349.8300
 PW_GRID| Grid span                                                    FULLSPACE
 PW_GRID|   Distribution                         Average         Max         Min
 PW_GRID|   G-Vectors                            84199.5       84240       84024
 PW_GRID|   G-Rays                                 389.8         390         389
 PW_GRID|   Real Space Points                    84199.5       99792       49896

 PW_GRID| Information for grid number                                          2
 PW_GRID| Grid distributed over                                   128 processors
 PW_GRID| Real space group dimensions                                     8   16
 PW_GRID| the grid is blocked:                                                NO
 PW_GRID| Cutoff [a.u.]                                                    108.3
 PW_GRID| spherical cutoff:                                                   NO
 PW_GRID|   Bounds   1            -63      62                Points:         126
 PW_GRID|   Bounds   2            -63      62                Points:         126
 PW_GRID|   Bounds   3            -66      65                Points:         132
 PW_GRID| Volume element (a.u.^3)  0.9233E-02     Volume (a.u.^3)     19349.8300
 PW_GRID| Grid span                                                    FULLSPACE
 PW_GRID|   Distribution                         Average         Max         Min
 PW_GRID|   G-Vectors                            16372.1       16758       16002
 PW_GRID|   G-Rays                                 129.9         133         127
 PW_GRID|   Real Space Points                    16372.1       16896       13860

 PW_GRID| Information for grid number                                          3
 PW_GRID| Grid distributed over                                   128 processors
 PW_GRID| Real space group dimensions                                     8   16
 PW_GRID| the grid is blocked:                                                NO
 PW_GRID| Cutoff [a.u.]                                                     36.1
 PW_GRID| spherical cutoff:                                                   NO
 PW_GRID|   Bounds   1            -36      35                Points:          72
 PW_GRID|   Bounds   2            -36      35                Points:          72
 PW_GRID|   Bounds   3            -38      38                Points:          77
 PW_GRID| Volume element (a.u.^3)  0.4848E-01     Volume (a.u.^3)     19349.8300
 PW_GRID| Grid span                                                    FULLSPACE
 PW_GRID|   Distribution                         Average         Max         Min
 PW_GRID|   G-Vectors                             3118.5        3168        3024
 PW_GRID|   G-Rays                                  43.3          44          42
 PW_GRID|   Real Space Points                     3118.5        3465        2772

 PW_GRID| Information for grid number                                          4
 PW_GRID| Grid distributed over                                   128 processors
 PW_GRID| Real space group dimensions                                     8   16
 PW_GRID| the grid is blocked:                                                NO
 PW_GRID| Cutoff [a.u.]                                                     12.0
 PW_GRID| spherical cutoff:                                                   NO
 PW_GRID|   Bounds   1            -21      20                Points:          42
 PW_GRID|   Bounds   2            -21      20                Points:          42
 PW_GRID|   Bounds   3            -22      21                Points:          44
 PW_GRID| Volume element (a.u.^3)  0.2493         Volume (a.u.^3)     19349.8300
 PW_GRID| Grid span                                                    FULLSPACE
 PW_GRID|   Distribution                         Average         Max         Min
 PW_GRID|   G-Vectors                              606.4         672         546
 PW_GRID|   G-Rays                                  14.4          16          13
 PW_GRID|   Real Space Points                      606.4         792         440

 PW_GRID| Information for grid number                                          5
 PW_GRID| Grid distributed over                                   128 processors
 PW_GRID| Real space group dimensions                                     8   16
 PW_GRID| the grid is blocked:                                                NO
 PW_GRID| Cutoff [a.u.]                                                      4.0
 PW_GRID| spherical cutoff:                                                   NO
 PW_GRID|   Bounds   1            -12      11                Points:          24
 PW_GRID|   Bounds   2            -12      11                Points:          24
 PW_GRID|   Bounds   3            -12      12                Points:          25
 PW_GRID| Volume element (a.u.^3)   1.344         Volume (a.u.^3)     19349.8300
 PW_GRID| Grid span                                                    FULLSPACE
 PW_GRID|   Distribution                         Average         Max         Min
 PW_GRID|   G-Vectors                              112.5         144          96
 PW_GRID|   G-Rays                                   4.7           6           4
 PW_GRID|   Real Space Points                      112.5         150          75

 PW_GRID| Information for grid number                                          6
 PW_GRID| Grid distributed over                                   128 processors
 PW_GRID| Real space group dimensions                                     8   16
 PW_GRID| the grid is blocked:                                                NO
 PW_GRID| Cutoff [a.u.]                                                      1.3
 PW_GRID| spherical cutoff:                                                   NO
 PW_GRID|   Bounds   1             -7       6                Points:          14
 PW_GRID|   Bounds   2             -7       6                Points:          14
 PW_GRID|   Bounds   3             -7       7                Points:          15
 PW_GRID| Volume element (a.u.^3)   6.582         Volume (a.u.^3)     19349.8300
 PW_GRID| Grid span                                                    FULLSPACE
 PW_GRID|   Distribution                         Average         Max         Min
 PW_GRID|   G-Vectors                               23.0          42          14
 PW_GRID|   G-Rays                                   1.6           3           1
 PW_GRID|   Real Space Points                       23.0          30           0

 PW_GRID| Information for grid number                                          7
 PW_GRID| Grid distributed over                                   128 processors
 PW_GRID| Real space group dimensions                                     8   16
 PW_GRID| the grid is blocked:                                                NO
 PW_GRID| Cutoff [a.u.]                                                      0.4
 PW_GRID| spherical cutoff:                                                   NO
 PW_GRID|   Bounds   1             -3       3                Points:           7
 PW_GRID|   Bounds   2             -3       3                Points:           7
 PW_GRID|   Bounds   3             -4       4                Points:           9
 PW_GRID| Volume element (a.u.^3)   43.88         Volume (a.u.^3)     19349.8300
 PW_GRID| Grid span                                                    FULLSPACE
 PW_GRID|   Distribution                         Average         Max         Min
 PW_GRID|   G-Vectors                                3.4           7           0
 PW_GRID|   G-Rays                                   0.5           1           0
 PW_GRID|   Real Space Points                        3.4           9           0

 PW_GRID| Information for grid number                                          8
 PW_GRID| Grid distributed over                                   128 processors
 PW_GRID| Real space group dimensions                                     8   16
 PW_GRID| the grid is blocked:                                                NO
 PW_GRID| Cutoff [a.u.]                                                      0.1
 PW_GRID| spherical cutoff:                                                   NO
 PW_GRID|   Bounds   1             -2       2                Points:           5
 PW_GRID|   Bounds   2             -2       2                Points:           5
 PW_GRID|   Bounds   3             -2       2                Points:           5
 PW_GRID| Volume element (a.u.^3)   154.8         Volume (a.u.^3)     19349.8300
 PW_GRID| Grid span                                                    FULLSPACE
 PW_GRID|   Distribution                         Average         Max         Min
 PW_GRID|   G-Vectors                                1.0           5           0
 PW_GRID|   G-Rays                                   0.2           1           0
 PW_GRID|   Real Space Points                        1.0           5           0

 PW_GRID| Information for grid number                                          9
 PW_GRID| Grid distributed over                                   128 processors
 PW_GRID| Real space group dimensions                                     8   16
 PW_GRID| the grid is blocked:                                                NO
 PW_GRID| Cutoff [a.u.]                                                      0.0
 PW_GRID| spherical cutoff:                                                   NO
 PW_GRID|   Bounds   1             -1       1                Points:           3
 PW_GRID|   Bounds   2             -1       1                Points:           3
 PW_GRID|   Bounds   3             -1       1                Points:           3
 PW_GRID| Volume element (a.u.^3)   716.7         Volume (a.u.^3)     19349.8300
 PW_GRID| Grid span                                                    FULLSPACE
 PW_GRID|   Distribution                         Average         Max         Min
 PW_GRID|   G-Vectors                                0.2           3           0
 PW_GRID|   G-Rays                                   0.1           1           0
 PW_GRID|   Real Space Points                        0.2           3           0

 PW_GRID| Information for grid number                                         10
 PW_GRID| Grid distributed over                                   128 processors
 PW_GRID| Real space group dimensions                                     8   16
 PW_GRID| the grid is blocked:                                                NO
 PW_GRID| Cutoff [a.u.]                                                      0.0
 PW_GRID| spherical cutoff:                                                   NO
 PW_GRID|   Bounds   1              0       0                Points:           1
 PW_GRID|   Bounds   2              0       0                Points:           1
 PW_GRID|   Bounds   3              0       0                Points:           1
 PW_GRID| Volume element (a.u.^3)  0.1935E+05     Volume (a.u.^3)     19349.8300
 PW_GRID| Grid span                                                    FULLSPACE
 PW_GRID|   Distribution                         Average         Max         Min
 PW_GRID|   G-Vectors                                0.0           1           0
 PW_GRID|   G-Rays                                   0.0           1           0
 PW_GRID|   Real Space Points                        0.0           1           0

 POISSON| Solver                                                        PERIODIC
 POISSON| Periodicity                                                        XYZ

 RS_GRID| Information for grid number                                          1
 RS_GRID|   Bounds   1           -108     107                Points:         216
 RS_GRID|   Bounds   2           -108     107                Points:         216
 RS_GRID|   Bounds   3           -115     115                Points:         231
 RS_GRID| Real space distribution over                                  4 groups
 RS_GRID| Real space distribution along direction                              1
 RS_GRID| Border size                                                         27
 RS_GRID| Real space distribution over                                  4 groups
 RS_GRID| Real space distribution along direction                              2
 RS_GRID| Border size                                                         27
 RS_GRID| Real space distribution over                                  8 groups
 RS_GRID| Real space distribution along direction                              3
 RS_GRID| Border size                                                         27
 RS_GRID|   Distribution                         Average         Max         Min
 RS_GRID|   Planes                                 108.0         108         108
 RS_GRID|   Distribution                         Average         Max         Min
 RS_GRID|   Planes                                 108.0         108         108
 RS_GRID|   Distribution                         Average         Max         Min
 RS_GRID|   Planes                                  82.9          83          82

 RS_GRID| Information for grid number                                          2
 RS_GRID|   Bounds   1            -63      62                Points:         126
 RS_GRID|   Bounds   2            -63      62                Points:         126
 RS_GRID|   Bounds   3            -66      65                Points:         132
 RS_GRID| Real space distribution over                                  4 groups
 RS_GRID| Real space distribution along direction                              1
 RS_GRID| Border size                                                         26
 RS_GRID| Real space distribution over                                  4 groups
 RS_GRID| Real space distribution along direction                              2
 RS_GRID| Border size                                                         26
 RS_GRID| Real space distribution over                                  8 groups
 RS_GRID| Real space distribution along direction                              3
 RS_GRID| Border size                                                         26
 RS_GRID|   Distribution                         Average         Max         Min
 RS_GRID|   Planes                                  83.5          84          83
 RS_GRID|   Distribution                         Average         Max         Min
 RS_GRID|   Planes                                  83.5          84          83
 RS_GRID|   Distribution                         Average         Max         Min
 RS_GRID|   Planes                                  68.5          69          68

 RS_GRID| Information for grid number                                          3
 RS_GRID|   Bounds   1            -36      35                Points:          72
 RS_GRID|   Bounds   2            -36      35                Points:          72
 RS_GRID|   Bounds   3            -38      38                Points:          77
 RS_GRID| Real space fully replicated
 RS_GRID| Group size                                                           1

 RS_GRID| Information for grid number                                          4
 RS_GRID|   Bounds   1            -21      20                Points:          42
 RS_GRID|   Bounds   2            -21      20                Points:          42
 RS_GRID|   Bounds   3            -22      21                Points:          44
 RS_GRID| Real space fully replicated
 RS_GRID| Group size                                                           1

 RS_GRID| Information for grid number                                          5
 RS_GRID|   Bounds   1            -12      11                Points:          24
 RS_GRID|   Bounds   2            -12      11                Points:          24
 RS_GRID|   Bounds   3            -12      12                Points:          25
 RS_GRID| Real space fully replicated
 RS_GRID| Group size                                                           1

 RS_GRID| Information for grid number                                          6
 RS_GRID|   Bounds   1             -7       6                Points:          14
 RS_GRID|   Bounds   2             -7       6                Points:          14
 RS_GRID|   Bounds   3             -7       7                Points:          15
 RS_GRID| Real space fully replicated
 RS_GRID| Group size                                                           1

 RS_GRID| Information for grid number                                          7
 RS_GRID|   Bounds   1             -3       3                Points:           7
 RS_GRID|   Bounds   2             -3       3                Points:           7
 RS_GRID|   Bounds   3             -4       4                Points:           9
 RS_GRID| Real space fully replicated
 RS_GRID| Group size                                                           1

 RS_GRID| Information for grid number                                          8
 RS_GRID|   Bounds   1             -2       2                Points:           5
 RS_GRID|   Bounds   2             -2       2                Points:           5
 RS_GRID|   Bounds   3             -2       2                Points:           5
 RS_GRID| Real space fully replicated
 RS_GRID| Group size                                                           1

 RS_GRID| Information for grid number                                          9
 RS_GRID|   Bounds   1             -1       1                Points:           3
 RS_GRID|   Bounds   2             -1       1                Points:           3
 RS_GRID|   Bounds   3             -1       1                Points:           3
 RS_GRID| Real space fully replicated
 RS_GRID| Group size                                                           1

 RS_GRID| Information for grid number                                         10
 RS_GRID|   Bounds   1              0       0                Points:           1
 RS_GRID|   Bounds   2              0       0                Points:           1
 RS_GRID|   Bounds   3              0       0                Points:           1
 RS_GRID| Real space fully replicated
 RS_GRID| Group size                                                           1

 Spin 1

 Number of electrons:                                                       1081
 Number of occupied orbitals:                                               1081
 Number of molecular orbitals:                                              1081

 Spin 2

 Number of electrons:                                                       1080
 Number of occupied orbitals:                                               1080
 Number of molecular orbitals:                                              1080

 Number of orbital functions:                                               1620
 Number of independent orbital functions:                                   1620

 Extrapolation method: initial_guess


 SCF WAVEFUNCTION OPTIMIZATION

  Step     Update method      Time    Convergence         Total energy    Change
  ------------------------------------------------------------------------------
     1 NoMix/Diag. 0.40E+00    5.0     0.12446750     -8102.4621268558 -8.10E+03
     2 Broy./Diag. 0.40E+00    3.9     0.08398707     -8095.5172880205  6.94E+00
     3 Broy./Diag. 0.40E+00    3.9     0.04308353     -8096.5775296480 -1.06E+00
     4 Broy./Diag. 0.40E+00    3.5     0.03964411     -8105.4085406498 -8.83E+00
     5 Broy./Diag. 0.40E+00    3.6     0.02483786     -8104.3548537323  1.05E+00
     6 Broy./Diag. 0.40E+00    3.9     0.02215745     -8102.8639901944  1.49E+00
     7 Broy./Diag. 0.40E+00    3.3     0.02317759     -8103.1151575247 -2.51E-01
     8 Broy./Diag. 0.40E+00    4.3     0.01757918     -8103.5920416005 -4.77E-01
     9 Broy./Diag. 0.40E+00    3.7     0.01301525     -8103.6487622080 -5.67E-02
    10 Broy./Diag. 0.40E+00    3.7     0.00691729     -8103.4756923468  1.73E-01
    11 Broy./Diag. 0.40E+00    3.9     0.00206040     -8103.2087016589  2.67E-01
    12 Broy./Diag. 0.40E+00    3.3     0.00382913     -8103.2695449058 -6.08E-02
    13 Broy./Diag. 0.40E+00    3.7     0.00261958     -8103.2050274327  6.45E-02
    14 Broy./Diag. 0.40E+00    3.7     0.00120400     -8103.1946085164  1.04E-02
    15 Broy./Diag. 0.40E+00    3.4     0.00080362     -8103.1988346442 -4.23E-03
    16 Broy./Diag. 0.40E+00    4.1     0.00071091     -8103.2115250375 -1.27E-02
    17 Broy./Diag. 0.40E+00    3.6     0.00040832     -8103.2143436269 -2.82E-03
    18 Broy./Diag. 0.40E+00    3.9     0.00019709     -8103.2088308418  5.51E-03
    19 Broy./Diag. 0.40E+00    3.6     0.00014207     -8103.2075880701  1.24E-03
    20 Broy./Diag. 0.40E+00    3.3     0.00010202     -8103.2093854276 -1.80E-03
    21 Broy./Diag. 0.40E+00    3.8     0.00006557     -8103.2098020404 -4.17E-04
    22 Broy./Diag. 0.40E+00    3.7     0.00004623     -8103.2101915959 -3.90E-04
    23 Broy./Diag. 0.40E+00    3.8     0.00003786     -8103.2108525647 -6.61E-04
    24 Broy./Diag. 0.40E+00    4.8     0.00002901     -8103.2103539324  4.99E-04
    25 Broy./Diag. 0.40E+00    6.4     0.00001216     -8103.2101419752  2.12E-04
    26 Broy./Diag. 0.40E+00    4.5     0.00001040     -8103.2102922249 -1.50E-04
    27 Broy./Diag. 0.40E+00    4.6     0.00000370     -8103.2102006539  9.16E-05
    28 Broy./Diag. 0.40E+00    4.2     0.00000163     -8103.2101227365  7.79E-05
    29 Broy./Diag. 0.40E+00    4.3     0.00000076     -8103.2101504109 -2.77E-05

  *** SCF run converged in    29 steps ***


  Electronic density on regular grids:      -2160.9999999993        0.0000000007
  Core density on regular grids:             2159.9999999994       -0.0000000006
  Total charge density on r-space grids:       -1.0000000000
  Total charge density g-space grids:          -1.0000000000

  Overlap energy of the core charge distribution:               0.00000000000205
  Self energy of the core charge distribution:             -17095.63438313942970
  Core Hamiltonian energy:                                   4662.88384026771109
  Hartree energy:                                            5611.20976269300809
  Exchange-correlation energy:                              -1309.32577148338578

  DFT+U energy:                                                27.65640125115479

  Total energy:                                             -8103.21015041093870

  outer SCF iter =    1 RMS gradient =   0.76E-06 energy =      -8103.2101504109
  outer SCF loop converged in   1 iterations or   29 steps


  Integrated absolute spin density  :                               1.1771510654
  Ideal and single determinant S**2 :                    0.750000       0.754696

 !-----------------------------------------------------------------------------!
                     Mulliken Population Analysis

 #  Atom  Element  Kind  Atomic population (alpha,beta) Net charge  Spin moment
       1     Ti       1         5.260387     5.260386     1.479227     0.000001
       2     Ti       1         5.260371     5.260354     1.479275     0.000017
       3     Ti       1         5.260903     5.260863     1.478234     0.000040
       4     Ti       1         5.261909     5.260138     1.477953     0.001772
       5     Ti       1         5.260380     5.260361     1.479259     0.000020
       6     Ti       1         5.260378     5.260361     1.479261     0.000017
       7     Ti       1         5.260378     5.260377     1.479245     0.000000
       8     Ti       1         5.260463     5.260492     1.479045    -0.000030
       9     Ti       1         5.260380     5.260361     1.479259     0.000020
      10     Ti       1         5.260378     5.260361     1.479261     0.000017
      11     Ti       1         5.260902     5.260862     1.478236     0.000040
      12     Ti       1         5.260887     5.260880     1.478233     0.000007
      13     Ti       1         5.260707     5.260726     1.478567    -0.000019
      14     Ti       1         5.260891     5.260884     1.478225     0.000007
      15     Ti       1         5.260387     5.260387     1.479226     0.000001
      16     Ti       1         5.260371     5.260354     1.479275     0.000017
      17     Ti       1         5.260378     5.260377     1.479245     0.000000
      18     Ti       1         5.260463     5.260493     1.479045    -0.000030
      19     Ti       1         5.260373     5.260372     1.479255     0.000001
      20     Ti       1         5.260359     5.260359     1.479282     0.000000
      21     Ti       1         5.260220     5.260040     1.479740     0.000181
      22     Ti       1         5.267106     5.260853     1.472041     0.006254
      23     Ti       1         5.260308     5.260238     1.479454     0.000070
      24     Ti       1         5.260358     5.260358     1.479284     0.000000
      25     Ti       1         5.260383     5.260382     1.479235     0.000001
      26     Ti       1         5.260380     5.260409     1.479211    -0.000029
      27     Ti       1         5.260308     5.260238     1.479453     0.000070
      28     Ti       1         5.260358     5.260358     1.479284     0.000000
      29     Ti       1         5.260223     5.260043     1.479735     0.000180
      30     Ti       1         5.260886     5.260546     1.478568     0.000340
      31     Ti       1         5.260708     5.260664     1.478629     0.000044
      32     Ti       1         5.260892     5.260553     1.478555     0.000340
      33     Ti       1         5.260373     5.260372     1.479254     0.000001
      34     Ti       1         5.260359     5.260358     1.479283     0.000000
      35     Ti       1         5.260383     5.260382     1.479235     0.000001
      36     Ti       1         5.260380     5.260409     1.479211    -0.000029
      37     Ti       1         5.260352     5.260344     1.479304     0.000009
      38     Ti       1         5.260610     5.260648     1.478742    -0.000038
      39     Ti       1         5.265018     5.256245     1.478737     0.008773
      40     Ti       1         5.819640     4.772135     1.408225     1.047505
      41     Ti       1         5.261723     5.261862     1.476415    -0.000139
      42     Ti       1         5.260586     5.260624     1.478789    -0.000038
      43     Ti       1         5.260352     5.260343     1.479305     0.000009
      44     Ti       1         5.260124     5.260376     1.479500    -0.000252
      45     Ti       1         5.261724     5.261863     1.476414    -0.000139
      46     Ti       1         5.260586     5.260624     1.478789    -0.000038
      47     Ti       1         5.265018     5.256262     1.478720     0.008756
      48     Ti       1         5.262285     5.260773     1.476942     0.001512
      49     Ti       1         5.261009     5.260387     1.478604     0.000622
      50     Ti       1         5.262290     5.260778     1.476932     0.001512
      51     Ti       1         5.260353     5.260344     1.479304     0.000009
      52     Ti       1         5.260610     5.260648     1.478742    -0.000038
      53     Ti       1         5.260352     5.260343     1.479305     0.000009
      54     Ti       1         5.260124     5.260376     1.479500    -0.000252
      55     Ti       1         5.260353     5.260344     1.479303     0.000009
      56     Ti       1         5.260359     5.260358     1.479283     0.000000
      57     Ti       1         5.265020     5.256242     1.478737     0.008778
      58     Ti       1         5.267103     5.260848     1.472050     0.006255
      59     Ti       1         5.261722     5.261861     1.476418    -0.000139
      60     Ti       1         5.260358     5.260358     1.479284     0.000000
      61     Ti       1         5.260352     5.260344     1.479304     0.000009
      62     Ti       1         5.260380     5.260409     1.479211    -0.000029
      63     Ti       1         5.261722     5.261861     1.476416    -0.000139
      64     Ti       1         5.260358     5.260358     1.479284     0.000000
      65     Ti       1         5.265020     5.256259     1.478720     0.008761
      66     Ti       1         5.260885     5.260546     1.478569     0.000340
      67     Ti       1         5.261009     5.260387     1.478603     0.000622
      68     Ti       1         5.260892     5.260552     1.478556     0.000340
      69     Ti       1         5.260353     5.260344     1.479303     0.000009
      70     Ti       1         5.260359     5.260358     1.479283     0.000000
      71     Ti       1         5.260352     5.260344     1.479304     0.000009
      72     Ti       1         5.260380     5.260409     1.479211    -0.000029
      73     Ti       1         5.260373     5.260372     1.479255     0.000001
      74     Ti       1         5.260371     5.260353     1.479276     0.000017
      75     Ti       1         5.260221     5.260040     1.479740     0.000181
      76     Ti       1         5.261908     5.260136     1.477956     0.001772
      77     Ti       1         5.260307     5.260237     1.479456     0.000070
      78     Ti       1         5.260378     5.260361     1.479261     0.000017
      79     Ti       1         5.260383     5.260382     1.479235     0.000001
      80     Ti       1         5.260463     5.260492     1.479045    -0.000030
[...]
        83  Ti  3s              -0.024115
       203  O   2s              -0.073376
       203  O   3py             -0.052143
       203  O   3pz             -0.040531
       204  O   2s               0.073368
       204  O   3py             -0.052154
       204  O   3pz              0.040503
       205  O   3pz              0.041643
       206  O   3pz             -0.041634
       239  O   2s               0.064953
       239  O   3py              0.043496
       239  O   3pz             -0.045296
       240  O   2s              -0.064972
       240  O   3py              0.043499
       240  O   3pz              0.045310
  EIG. VAL/OCC. =     0.000000 /    0.000000
 -----------------------------
        22  Ti  3s               0.010523
        40  Ti  2s               0.022094
        40  Ti  3s              -0.064662
        40  Ti  3pz             -0.013410
        40  Ti  4d0             -0.029260
        58  Ti  2s              -0.011051
        58  Ti  3s               0.039195
        58  Ti  4d-2             0.023693
        58  Ti  4d0              1.058751
        59  Ti  3s               0.011050
        63  Ti  3s               0.011050
        76  Ti  2s               0.020006
        76  Ti  3s              -0.062792
        76  Ti  3pz              0.010863
        76  Ti  4d0             -0.026052
        77  Ti  3s               0.010460
        81  Ti  3s               0.010460
       203  O   2s              -0.032721
       203  O   3py             -0.040738
       203  O   3pz              0.018486
       203  O   3px             -0.040737
       204  O   2s              -0.032667
       204  O   3py              0.040713
       204  O   3pz              0.018529
       204  O   3px              0.040713
       205  O   2s               0.049991
       205  O   3py             -0.030303
       205  O   3px              0.030305
       206  O   2s               0.049991
       206  O   3py              0.030305
       206  O   3px             -0.030303
       239  O   2s              -0.038792
       239  O   3py             -0.039776
       239  O   3px             -0.039777
       240  O   2s              -0.038827
       240  O   3py              0.039796
       240  O   3px              0.039795
  EIG. VAL/OCC. =     0.000000 /    0.000000
 -----------------------------
        40  Ti  4d-1             0.020973
        57  Ti  3s              -0.023007
        58  Ti  4d-1             1.062865
        58  Ti  4d+1             0.026973
        59  Ti  3s              -0.019375
        63  Ti  3s               0.019395
        65  Ti  3s               0.023005
        75  Ti  3s               0.024112
        76  Ti  4d-1             0.019717
        77  Ti  3s               0.019273
        81  Ti  3s              -0.019280
        83  Ti  3s              -0.024115
       203  O   2s              -0.073378
       203  O   3pz             -0.040533
       203  O   3px             -0.052143
       204  O   2s               0.073368
       204  O   3pz              0.040503
       204  O   3px             -0.052154
       205  O   3pz             -0.041633
       206  O   3pz              0.041644
       239  O   2s               0.064952
       239  O   3pz             -0.045295
       239  O   3px              0.043496
       240  O   2s              -0.064973
       240  O   3pz              0.045311
       240  O   3px              0.043499
 NOTE: IF SOME ORBS ARE EXCLUDED CHECK THE TOTAL CHRG MIGHT NOT REFLECT THE WHOLE FRG CHRG
   MOA FOR FRAGMENTS
   -----------------
  FRAG   POP         CHRG          SPIN
      ----------------------------------------------------
    1      0.01554     11.98446      0.01554
    2      0.93836     11.06164      0.93836
    3      0.00420     11.99580      0.00420
 ..... END OF MOA ANALYSIS FOR FRAGEMENTS .....
  
 ..... END OF MOA ANALYSIS .....

 ENERGY| Total FORCE_EVAL ( QS ) energy (a.u.):            -8103.210150410938695


 -------------------------------------------------------------------------------
 -                                                                             -
 -                                DBCSR STATISTICS                             -
 -                                                                             -
 -------------------------------------------------------------------------------
 COUNTER                                    TOTAL       BLAS       SMM       ACC
 flops     4 x    25 x     4             25920000     100.0%      0.0%      0.0%
 flops    10 x    25 x     4             32400000     100.0%      0.0%      0.0%
 flops     4 x    25 x    10             32400000     100.0%      0.0%      0.0%
 flops    10 x    25 x    10             40500000     100.0%      0.0%      0.0%
 flops     4 x    24 x     4             49766400     100.0%      0.0%      0.0%
 flops    10 x    24 x     4             62208000     100.0%      0.0%      0.0%
 flops     4 x    24 x    10             62208000     100.0%      0.0%      0.0%
 flops    10 x    24 x    10             77760000     100.0%      0.0%      0.0%
 flops     4 x    20 x     4           1209369600     100.0%      0.0%      0.0%
 flops     4 x     4 x    88           1376179200     100.0%      0.0%      0.0%
 flops     4 x     4 x    89           1391817600     100.0%      0.0%      0.0%
 flops    10 x    20 x     4           1503360000     100.0%      0.0%      0.0%
 flops     4 x    20 x    10           1503360000     100.0%      0.0%      0.0%
 flops    10 x     4 x    88           1710720000     100.0%      0.0%      0.0%
 flops     4 x    10 x    88           1710720000     100.0%      0.0%      0.0%
 flops    10 x     4 x    89           1730160000     100.0%      0.0%      0.0%
 flops     4 x    10 x    89           1730160000     100.0%      0.0%      0.0%
 flops    10 x    20 x    10           1900080000     100.0%      0.0%      0.0%
 flops    10 x    10 x    88           2162160000     100.0%      0.0%      0.0%
 flops    10 x    10 x    89           2186730000     100.0%      0.0%      0.0%
 flops     4 x     4 x   116           3507171840     100.0%      0.0%      0.0%
 flops    10 x     4 x   116           4359744000     100.0%      0.0%      0.0%
 flops     4 x    10 x   116           4359744000     100.0%      0.0%      0.0%
 flops    10 x    10 x   116           5510232000     100.0%      0.0%      0.0%
 flops     4 x     4 x   128           7739965440     100.0%      0.0%      0.0%
 flops    10 x     4 x   128           9621504000     100.0%      0.0%      0.0%
 flops     4 x    10 x   128           9621504000     100.0%      0.0%      0.0%
 flops    10 x    10 x   128          12160512000     100.0%      0.0%      0.0%
 flops     4 x     4 x    64          28024012800     100.0%      0.0%      0.0%
 flops    10 x     4 x    64          34836480000     100.0%      0.0%      0.0%
 flops     4 x    10 x    64          34836480000     100.0%      0.0%      0.0%
 flops     4 x     4 x    96          40734904320     100.0%      0.0%      0.0%
 flops    10 x    10 x    64          44029440000     100.0%      0.0%      0.0%
 flops    10 x     4 x    96          50637312000     100.0%      0.0%      0.0%
 flops     4 x    10 x    96          50637312000     100.0%      0.0%      0.0%
 flops    10 x    10 x    96          63999936000     100.0%      0.0%      0.0%
 flops     4 x    32 x     4         100034150400     100.0%      0.0%      0.0%
 flops    10 x    32 x     4         124374528000     100.0%      0.0%      0.0%
 flops     4 x    32 x    10         124374528000     100.0%      0.0%      0.0%
 flops    10 x    32 x    10         157138560000     100.0%      0.0%      0.0%
 flops inhomo. stacks                           0       0.0%      0.0%      0.0%
 flops total                       931.036000E+09     100.0%      0.0%      0.0%
 flops max/rank                      8.533032E+09     100.0%      0.0%      0.0%
 matmuls inhomo. stacks                         0       0.0%      0.0%      0.0%
 matmuls total                          292945140     100.0%      0.0%      0.0%
 number of processed stacks               1534198     100.0%      0.0%      0.0%
 average stack size                                   190.9       0.0       0.0
 marketing flops                     1.836821E+12
 -------------------------------------------------------------------------------
 # multiplications                            237
 max memory usage/rank             257.892352E+06
 # max total images/rank                        2
 # max 3D layers                                1
 # MPI messages exchanged                 1365120
 MPI messages size (bytes):
  total size                       118.192554E+09
  min size                           0.000000E+00
  max size                         210.944000E+03
  average size                      86.580344E+03
 MPI breakdown and total messages size (bytes):
             size <=      128               97440                        0
       128 < size <=     8192               13920                 82684800
      8192 < size <=    32768                   0                        0
     32768 < size <=   131072             1010880              78481418400
    131072 < size <=  4194304              242880              39628440000
   4194304 < size <= 16777216                   0                        0
  16777216 < size                               0                        0
 -------------------------------------------------------------------------------

 *** WARNING in dbcsr/mm/dbcsr_mm.F:268 :: Using a non-square number of ***
 *** MPI ranks might lead to poor performance.                          ***
 *** Used ranks: 128                                                    ***
 *** Suggested: 121 256                                                 ***

 -------------------------------------------------------------------------------

 MEMORY| Estimated peak process memory [MiB]                                 376

 -------------------------------------------------------------------------------
 ----                             MULTIGRID INFO                            ----
 -------------------------------------------------------------------------------
 count for grid        1:        2404248          cutoff [a.u.]          325.00
 count for grid        2:        1178792          cutoff [a.u.]          108.33
 count for grid        3:        1432350          cutoff [a.u.]           36.11
 count for grid        4:        1854196          cutoff [a.u.]           12.04
 count for grid        5:         988668          cutoff [a.u.]            4.01
 count for grid        6:              0          cutoff [a.u.]            1.34
 count for grid        7:              0          cutoff [a.u.]            0.45
 count for grid        8:              0          cutoff [a.u.]            0.15
 count for grid        9:              0          cutoff [a.u.]            0.05
 count for grid       10:              0          cutoff [a.u.]            0.02
 total gridlevel count  :        7858254

 -------------------------------------------------------------------------------
 -                                                                             -
 -                         MESSAGE PASSING PERFORMANCE                         -
 -                                                                             -
 -------------------------------------------------------------------------------

 ROUTINE             CALLS      AVE VOLUME [Bytes]
 MP_Group              194
 MP_Bcast             3744                 105326.
 MP_Allreduce        10881                  64556.
 MP_Sync            142967
 MP_Alltoall          7549                 432354.
 MP_ISendRecv       132080                   4455.
 MP_Wait            176126
 MP_comm_split        1428
 MP_ISend            37578                  68724.
 MP_IRecv            37480                  68739.
 MP_Recv            138738                   2044.
 MP_Memory           13278
 -------------------------------------------------------------------------------


 -------------------------------------------------------------------------------
 -                                                                             -
 -                           R E F E R E N C E S                               -
 -                                                                             -
 -------------------------------------------------------------------------------
 
 CP2K version 6.1, the CP2K developers group (2018).
 CP2K is freely available from https://www.cp2k.org/ .

 Schuett, Ole; Messmer, Peter; Hutter, Juerg; VandeVondele, Joost. 
 Electronic Structure Calculations on Graphics Processing Units, John Wiley & Sons, Ltd, 173-190 (2016). 
 GPU-Accelerated Sparse Matrix-Matrix Multiplication for Linear Scaling Density Functional Theory.
 http://dx.doi.org/10.1002/9781118670712.ch8


 Borstnik, U; VandeVondele, J; Weber, V; Hutter, J. 
 PARALLEL COMPUTING, 40 (5-6), 47-58 (2014). 
 Sparse matrix multiplication: The distributed block-compressed sparse
 row library.
 http://dx.doi.org/10.1016/j.parco.2014.03.012


 Hutter, J; Iannuzzi, M; Schiffmann, F; VandeVondele, J. 
 WILEY INTERDISCIPLINARY REVIEWS-COMPUTATIONAL MOLECULAR SCIENCE, 4 (1), 15-25 (2014). 
 CP2K: atomistic simulations of condensed matter systems.
 http://dx.doi.org/10.1002/wcms.1159


 VandeVondele, J; Hutter, J. 
 JOURNAL OF CHEMICAL PHYSICS, 127 (11), 114105 (2007). 
 Gaussian basis sets for accurate calculations on molecular systems in
 gas and condensed phases.
 http://dx.doi.org/10.1063/1.2770708


 Krack, M. 
 THEORETICAL CHEMISTRY ACCOUNTS, 114 (1-3), 145-152 (2005). 
 Pseudopotentials for H to Kr optimized for gradient-corrected
 exchange-correlation functionals.
 http://dx.doi.org/10.1007/s00214-005-0655-y


 VandeVondele, J; Krack, M; Mohamed, F; Parrinello, M; Chassaing, T;
 Hutter, J. COMPUTER PHYSICS COMMUNICATIONS, 167 (2), 103-128 (2005). 
 QUICKSTEP: Fast and accurate density functional calculations using a
 mixed Gaussian and plane waves approach.
 http://dx.doi.org/10.1016/j.cpc.2004.12.014


 Frigo, M; Johnson, SG. 
 PROCEEDINGS OF THE IEEE, 93 (2), 216-231 (2005). 
 The design and implementation of FFTW3.
 http://dx.doi.org/10.1109/JPROC.2004.840301


 Hartwigsen, C; Goedecker, S; Hutter, J. 
 PHYSICAL REVIEW B, 58 (7), 3641-3662 (1998). 
 Relativistic separable dual-space Gaussian pseudopotentials from H to Rn.
 http://dx.doi.org/10.1103/PhysRevB.58.3641


 Dudarev, SL; Botton, GA; Savrasov, SY; Humphreys, CJ; Sutton, AP. 
 PHYSICAL REVIEW B, 57 (3), 1505-1509 (1998). 
 Electron-energy-loss spectra and the structural stability of
 nickel oxide: An LSDA+U study.
 http://dx.doi.org/10.1103/PhysRevB.57.1505


 Lippert, G; Hutter, J; Parrinello, M. 
 MOLECULAR PHYSICS, 92 (3), 477-487 (1997). 
 A hybrid Gaussian and plane wave density functional scheme.
 http://dx.doi.org/10.1080/002689797170220


 Dudarev, SL; Manh, DN; Sutton, AP. 
 PHILOSOPHICAL MAGAZINE B, 75 (5), 613-628 (1997). 
 Effect of Mott-Hubbard correlations on the electronic
 structure and structural stability of uranium dioxide.
 http://dx.doi.org/10.1080/13642819708202343


 Perdew, JP; Burke, K; Ernzerhof, M. 
 PHYSICAL REVIEW LETTERS, 77 (18), 3865-3868 (1996). 
 Generalized gradient approximation made simple.
 http://dx.doi.org/10.1103/PhysRevLett.77.3865


 Goedecker, S; Teter, M; Hutter, J. 
 PHYSICAL REVIEW B, 54 (3), 1703-1710 (1996). 
 Separable dual-space Gaussian pseudopotentials.
 http://dx.doi.org/10.1103/PhysRevB.54.1703


 -------------------------------------------------------------------------------
 -                                                                             -
 -                                T I M I N G                                  -
 -                                                                             -
 -------------------------------------------------------------------------------
 SUBROUTINE                       CALLS  ASD         SELF TIME        TOTAL TIME
                                MAXIMUM       AVERAGE  MAXIMUM  AVERAGE  MAXIMUM
 CP2K                                 1  1.0    0.306    0.413  285.759  285.769
 qs_energies                          1  2.0    0.017    0.039  284.536  284.851
 qs_energies_properties               1  3.0    0.000    0.000  161.020  161.332
 maximal_orbital_analysis             1  4.0   11.524   12.023  161.020  161.332
 moax_frg                             3  5.0  114.831  119.137  146.872  147.195
 scf_env_do_scf                       1  3.0    0.000    0.000  116.824  117.693
 scf_env_do_scf_inner_loop           29  4.0    0.002    0.012  116.824  117.693
 qs_ks_update_qs_env                 29  5.0    0.001    0.001   56.530   57.090
 rebuild_ks_matrix                   29  6.0    0.000    0.000   56.358   56.922
 qs_ks_build_kohn_sham_matrix        29  7.0    1.588    2.151   56.358   56.921
 qs_rho_update_rho                   30  5.0    0.000    0.000   40.398   40.400
 calculate_rho_elec                  60  6.0   30.553   31.949   40.398   40.400
 sum_up_and_integrate                29  8.0    0.017    0.021   40.339   40.341
 integrate_v_rspace                  58  9.0   29.543   31.803   40.323   40.329
 orbmoa_frg                           6  6.0    1.401    3.901   20.642   21.366
 cp_fm_syevd                       1428  6.0    0.003    0.006   20.994   21.130
 qs_scf_new_mos                      29  5.0    0.001    0.001   18.427   19.994
 cp_fm_redistribute_end            1428  7.0   15.072   18.736   15.389   19.153
 eigensolver                         58  6.0    0.003    0.005   17.035   17.050
 cp_fm_syevd_base                  1428  7.2    3.599   16.908    3.599   16.908
 mp_sync                         142967  8.1   14.666   14.800   14.666   14.800
 pw_to_cube                          12  7.0    0.176   11.507   14.674   14.696
 pw_transfer                       1922  9.4    0.089    0.117   13.747   14.205
 fft_wrap_pw1pw2                   1864 10.4    0.010    0.012   13.630   14.082
 fft3d_ps                          1864 12.4    3.549    4.328   12.277   12.870
 fft_wrap_pw1pw2_330                694 11.5    0.468    0.611   12.294   12.783
 rs_pw_transfer                    1304  9.3    0.010    0.029   10.204   11.184
 cp_gemm                            157  7.8    0.000    0.001    6.560   10.885
 cp_gemm_fm_gemm                    157  8.8    0.000    0.001    6.560   10.884
 cp_fm_gemm                         157  9.8    6.560   10.884    6.560   10.884
 density_rs2pw                       60  7.0    0.004    0.004    9.094    9.900
 qs_vxc_create                       29  8.0    0.012    0.034    9.573    9.641
 xc_vxc_pw_create                    29  9.0    0.133    0.159    9.560    9.640
 mp_alltoall_z22v                  1864 14.4    7.025    8.843    7.025    8.843
 mp_alltoall_d11v                  2276 11.9    7.041    7.574    7.041    7.574
 rs_distribute_matrix               118  8.5    0.094    0.108    6.457    6.971
 mp_waitany                        7172 11.3    5.601    6.464    5.601    6.464
 rs_pw_transfer_RS2PW_330            74  9.0    0.721    0.902    4.803    5.988
 -------------------------------------------------------------------------------

 The number of warnings for this run is : 1
 
 -------------------------------------------------------------------------------
  **** **** ******  **  PROGRAM ENDED AT                 2020-04-19 19:14:11.067
 ***** ** ***  *** **   PROGRAM RAN ON            cpn-u24-27.cbls.ccr.buffalo.ed
 **    ****   ******    PROGRAM RAN BY                                  pavankum
 ***** **    ** ** **   PROGRAM PROCESS ID                                236414
  **** **  *******  **  PROGRAM STOPPED IN /projects/academic/mdupuis2/pavan/MOA
                                           /7.TiO2_pbe_plus_U10/ti_atoms/lowdin_
                                           at_mull_opt_geo
