 DBCSR| Multiplication driver                                               BLAS
 DBCSR| Multrec recursion limit                                              512
 DBCSR| Multiplication stack size                                           1000
 DBCSR| Maximum elements for images                                    UNLIMITED
 DBCSR| Multiplicative factor virtual images                                   1
 DBCSR| Multiplication size stacks                                             3
 DBCSR| Number of 3D layers                                               SINGLE
 DBCSR| Use MPI memory allocation                                              T
 DBCSR| Use RMA algorithm                                                      F
 DBCSR| Use Communication thread                                               T
 DBCSR| Communication thread load                                             87


  **** **** ******  **  PROGRAM STARTED AT               2019-08-11 09:32:19.540
 ***** ** ***  *** **   PROGRAM STARTED ON        cpn-u23-19.cbls.ccr.buffalo.ed
 **    ****   ******    PROGRAM STARTED BY                              pavankum
 ***** **    ** ** **   PROGRAM PROCESS ID                                403987
  **** **  *******  **  PROGRAM STARTED IN /projects/academic/mdupuis2/pavan/VAB
                                           _calculation/results_for_paper/3.1D_F
                                           e_7units/blyp_plusU5/def_opts/state1_
                                           at_point0_geo

 CP2K| version string:                                          CP2K version 6.1
 CP2K| source code revision number:                                    svn:18464
 CP2K| cp2kflags: libint fftw3 libxc parallel mpi3 scalapack libderiv_max_am1=5 
 CP2K|            libint_max_am=6
 CP2K| is freely available from                            https://www.cp2k.org/
 CP2K| Program compiled at                          Fri Nov 30 14:17:09 EST 2018
 CP2K| Program compiled on                       srv-p22-12.cbls.ccr.buffalo.edu
 CP2K| Program compiled for                                                local
 CP2K| Data directory path    /projects/academic/mdupuis2/pavan/cp2k/cp2k-6.1/da
 CP2K| Input file name                                                 input.inp

 GLOBAL| Force Environment number                                              1
 GLOBAL| Basis set file name            /projects/academic/mdupuis2/pavan/BASIS_
 GLOBAL| Potential file name            /projects/academic/mdupuis2/pavan/POTENT
 GLOBAL| MM Potential file name                                     MM_POTENTIAL
 GLOBAL| Coordinate file name                             intermediate_point.xyz
 GLOBAL| Method name                                                        CP2K
 GLOBAL| Project name                                                      p_fe_
 GLOBAL| Preferred FFT library                                             FFTW3
 GLOBAL| Preferred diagonalization lib.                                       SL
 GLOBAL| Run type                                                         ENERGY
 GLOBAL| All-to-all communication in single precision                          F
 GLOBAL| FFTs using library dependent lengths                                  T
 GLOBAL| Global print level                                               MEDIUM
 GLOBAL| Total number of message passing processes                            32
 GLOBAL| Number of threads for this process                                    1
 GLOBAL| This output is from process                                           0
 GLOBAL| CPU model name :  Intel(R) Xeon(R) Gold 6130 CPU @ 2.10GHz

 MEMORY| system memory details [Kb]
 MEMORY|                        rank 0           min           max       average
 MEMORY| MemTotal            196307064     196307064     196307064     196307064
 MEMORY| MemFree             116618532     116618532     116618532     116618532
 MEMORY| Buffers                404968        404968        404968        404968
 MEMORY| Cached               71793512      71792760      71793512      71792783
 MEMORY| Slab                   938036        938036        938036        938036
 MEMORY| SReclaimable           572380        572380        572380        572380
 MEMORY| MemLikelyFree       189389392     189388640     189389392     189388663


 *** Fundamental physical constants (SI units) ***

 *** Literature: B. J. Mohr and B. N. Taylor,
 ***             CODATA recommended values of the fundamental physical
 ***             constants: 2006, Web Version 5.1
 ***             http://physics.nist.gov/constants

 Speed of light in vacuum [m/s]                             2.99792458000000E+08
 Magnetic constant or permeability of vacuum [N/A**2]       1.25663706143592E-06
 Electric constant or permittivity of vacuum [F/m]          8.85418781762039E-12
 Planck constant (h) [J*s]                                  6.62606896000000E-34
 Planck constant (h-bar) [J*s]                              1.05457162825177E-34
 Elementary charge [C]                                      1.60217648700000E-19
 Electron mass [kg]                                         9.10938215000000E-31
 Electron g factor [ ]                                     -2.00231930436220E+00
 Proton mass [kg]                                           1.67262163700000E-27
 Fine-structure constant                                    7.29735253760000E-03
 Rydberg constant [1/m]                                     1.09737315685270E+07
 Avogadro constant [1/mol]                                  6.02214179000000E+23
 Boltzmann constant [J/K]                                   1.38065040000000E-23
 Atomic mass unit [kg]                                      1.66053878200000E-27
 Bohr radius [m]                                            5.29177208590000E-11

 *** Conversion factors ***

 [u] -> [a.u.]                                              1.82288848426455E+03
 [Angstrom] -> [Bohr] = [a.u.]                              1.88972613288564E+00
 [a.u.] = [Bohr] -> [Angstrom]                              5.29177208590000E-01
 [a.u.] -> [s]                                              2.41888432650478E-17
 [a.u.] -> [fs]                                             2.41888432650478E-02
 [a.u.] -> [J]                                              4.35974393937059E-18
 [a.u.] -> [N]                                              8.23872205491840E-08
 [a.u.] -> [K]                                              3.15774647902944E+05
 [a.u.] -> [kJ/mol]                                         2.62549961709828E+03
 [a.u.] -> [kcal/mol]                                       6.27509468713739E+02
 [a.u.] -> [Pa]                                             2.94210107994716E+13
 [a.u.] -> [bar]                                            2.94210107994716E+08
 [a.u.] -> [atm]                                            2.90362800883016E+08
 [a.u.] -> [eV]                                             2.72113838565563E+01
 [a.u.] -> [Hz]                                             6.57968392072181E+15
 [a.u.] -> [1/cm] (wave numbers)                            2.19474631370540E+05
 [a.u./Bohr**2] -> [1/cm]                                   5.14048714338585E+03
 

 CELL_TOP| Volume [angstrom^3]:                                        26196.625
 CELL_TOP| Vector a [angstrom    21.385     0.000     0.000    |a| =      21.385
 CELL_TOP| Vector b [angstrom     0.000    35.000     0.000    |b| =      35.000
 CELL_TOP| Vector c [angstrom     0.000     0.000    35.000    |c| =      35.000
 CELL_TOP| Angle (b,c), alpha [degree]:                                   90.000
 CELL_TOP| Angle (a,c), beta  [degree]:                                   90.000
 CELL_TOP| Angle (a,b), gamma [degree]:                                   90.000
 CELL_TOP| Numerically orthorhombic:                                         YES

 CELL| Volume [angstrom^3]:                                            26196.625
 CELL| Vector a [angstrom]:      21.385     0.000     0.000    |a| =      21.385
 CELL| Vector b [angstrom]:       0.000    35.000     0.000    |b| =      35.000
 CELL| Vector c [angstrom]:       0.000     0.000    35.000    |c| =      35.000
 CELL| Angle (b,c), alpha [degree]:                                       90.000
 CELL| Angle (a,c), beta  [degree]:                                       90.000
 CELL| Angle (a,b), gamma [degree]:                                       90.000
 CELL| Numerically orthorhombic:                                             YES

 CELL_REF| Volume [angstrom^3]:                                        26196.625
 CELL_REF| Vector a [angstrom    21.385     0.000     0.000    |a| =      21.385
 CELL_REF| Vector b [angstrom     0.000    35.000     0.000    |b| =      35.000
 CELL_REF| Vector c [angstrom     0.000     0.000    35.000    |c| =      35.000
 CELL_REF| Angle (b,c), alpha [degree]:                                   90.000
 CELL_REF| Angle (a,c), beta  [degree]:                                   90.000
 CELL_REF| Angle (a,b), gamma [degree]:                                   90.000
 CELL_REF| Numerically orthorhombic:                                         YES

 *******************************************************************************
 *******************************************************************************
 **                                                                           **
 **     #####                         ##              ##                      **
 **    ##   ##            ##          ##              ##                      **
 **   ##     ##                       ##            ######                    **
 **   ##     ##  ##   ##  ##   #####  ##  ##   ####   ##    #####    #####    **
 **   ##     ##  ##   ##  ##  ##      ## ##   ##      ##   ##   ##  ##   ##   **
 **   ##  ## ##  ##   ##  ##  ##      ####     ###    ##   ######   ######    **
 **    ##  ###   ##   ##  ##  ##      ## ##      ##   ##   ##       ##        **
 **     #######   #####   ##   #####  ##  ##  ####    ##    #####   ##        **
 **           ##                                                    ##        **
 **                                                                           **
 **                                                ... make the atoms dance   **
 **                                                                           **
 **            Copyright (C) by CP2K developers group (2000 - 2018)           **
 **                                                                           **
 *******************************************************************************

 DFT| Spin unrestricted (spin-polarized) Kohn-Sham calculation               UKS
 DFT| Multiplicity                                                            35
 DFT| Number of spin states                                                    2
 DFT| Charge                                                                   6
 DFT| Self-interaction correction (SIC)                                       NO
 DFT| Cutoffs: density                                              1.000000E-10
 DFT|          gradient                                             1.000000E-10
 DFT|          tau                                                  1.000000E-10
 DFT|          cutoff_smoothing_range                               0.000000E+00
 DFT| XC density smoothing                                                  NONE
 DFT| XC derivatives                                                          PW

 DFT+U| Method                                                          MULLIKEN
 DFT+U| Check atomic kind information for details
 FUNCTIONAL| ROUTINE=NEW
 FUNCTIONAL| BECKE88:
 FUNCTIONAL| A. Becke, Phys. Rev. A 38, 3098 (1988) {LSD version}               
 FUNCTIONAL| LYP:
 FUNCTIONAL| C. Lee, W. Yang, R.G. Parr, Phys. Rev. B, 37, 785 (1988) {LSD versi
 FUNCTIONAL| on}                                                                

 QS| Method:                                                                 GPW
 QS| Density plane wave grid type                        NON-SPHERICAL FULLSPACE
 QS| Number of grid levels:                                                   10
 QS| Density cutoff [a.u.]:                                                325.0
 QS| Multi grid cutoff [a.u.]: 1) grid level                               325.0
 QS|                           2) grid level                               108.3
 QS|                           3) grid level                                36.1
 QS|                           4) grid level                                12.0
 QS|                           5) grid level                                 4.0
 QS|                           6) grid level                                 1.3
 QS|                           7) grid level                                 0.4
 QS|                           8) grid level                                 0.1
 QS|                           9) grid level                                 0.0
 QS|                          10) grid level                                 0.0
 QS| Grid level progression factor:                                          3.0
 QS| Relative density cutoff [a.u.]:                                        30.0
 QS| Consistent realspace mapping and integration 
 QS| Interaction thresholds: eps_pgf_orb:                                1.0E-10
 QS|                         eps_filter_matrix:                          0.0E+00
 QS|                         eps_core_charge:                            1.0E-14
 QS|                         eps_rho_gspace:                             1.0E-12
 QS|                         eps_rho_rspace:                             1.0E-12
 QS|                         eps_gvg_rspace:                             1.0E-06
 QS|                         eps_ppl:                                    1.0E-02
 QS|                         eps_ppnl:                                   1.0E-08


 ATOMIC KIND INFORMATION

  1. Atomic kind: Fe                                    Number of atoms:       7

     Orbital Basis Set                                                   mod-DZV

       Number of orbital shell sets:                                           1
       Number of orbital shells:                                               7
       Number of primitive Cartesian functions:                                6
       Number of Cartesian basis functions:                                   21
       Number of spherical basis functions:                                   19
       Norm type:                                                              2

       Normalised Cartesian orbitals:

                        Set   Shell   Orbital            Exponent    Coefficient

                          1       1    2s                8.424366      -0.545589
                                                         4.825220      -0.832336
                                                         2.198939       0.958990
                                                         0.891661       0.416271
                                                         0.316231       0.012631
                                                         0.103474      -0.013505

                          1       2    3s                8.424366      -0.106056
                                                         4.825220      -0.104587
                                                         2.198939       0.052318
                                                         0.891661      -0.169042
                                                         0.316231       0.061854
                                                         0.103474       0.122891

                          1       3    4s                8.424366      -0.333477
                                                         4.825220      -0.289267
                                                         2.198939      -0.125861
                                                         0.891661      -1.004000
                                                         0.316231       0.780774
                                                         0.103474      -0.187846

                          1       4    3px               8.424366      -1.658234
                                                         4.825220       1.618912
                                                         2.198939       1.969078
                                                         0.891661       0.523780
                                                         0.316231       0.024574
                                                         0.103474      -0.000798
                          1       4    3py               8.424366      -1.658234
                                                         4.825220       1.618912
                                                         2.198939       1.969078
                                                         0.891661       0.523780
                                                         0.316231       0.024574
                                                         0.103474      -0.000798
                          1       4    3pz               8.424366      -1.658234
                                                         4.825220       1.618912
                                                         2.198939       1.969078
                                                         0.891661       0.523780
                                                         0.316231       0.024574
                                                         0.103474      -0.000798

                          1       5    4px               8.424366      -0.105249
                                                         4.825220      -0.126123
                                                         2.198939      -0.349657
                                                         0.891661      -0.133470
                                                         0.316231       0.170554
                                                         0.103474       0.054381
                          1       5    4py               8.424366      -0.105249
                                                         4.825220      -0.126123
                                                         2.198939      -0.349657
                                                         0.891661      -0.133470
                                                         0.316231       0.170554
                                                         0.103474       0.054381
                          1       5    4pz               8.424366      -0.105249
                                                         4.825220      -0.126123
                                                         2.198939      -0.349657
                                                         0.891661      -0.133470
                                                         0.316231       0.170554
                                                         0.103474       0.054381

                          1       6    4dx2              8.424366       7.918298
                                                         4.825220       5.112663
                                                         2.198939       2.118663
                                                         0.891661       0.465004
                                                         0.316231       0.065856
                                                         0.103474       0.002769
                          1       6    4dxy              8.424366      13.714895
                                                         4.825220       8.855393
                                                         2.198939       3.669632
                                                         0.891661       0.805411
                                                         0.316231       0.114066
                                                         0.103474       0.004796
                          1       6    4dxz              8.424366      13.714895
                                                         4.825220       8.855393
                                                         2.198939       3.669632
                                                         0.891661       0.805411
                                                         0.316231       0.114066
                                                         0.103474       0.004796
                          1       6    4dy2              8.424366       7.918298
                                                         4.825220       5.112663
                                                         2.198939       2.118663
                                                         0.891661       0.465004
                                                         0.316231       0.065856
                                                         0.103474       0.002769
                          1       6    4dyz              8.424366      13.714895
                                                         4.825220       8.855393
                                                         2.198939       3.669632
                                                         0.891661       0.805411
                                                         0.316231       0.114066
                                                         0.103474       0.004796
                          1       6    4dz2              8.424366       7.918298
                                                         4.825220       5.112663
                                                         2.198939       2.118663
                                                         0.891661       0.465004
                                                         0.316231       0.065856
                                                         0.103474       0.002769

                          1       7    5dx2              8.424366      -4.223614
                                                         4.825220      -1.970584
                                                         2.198939      -1.543490
                                                         0.891661      -0.041381
                                                         0.316231       0.082821
                                                         0.103474       0.021964
                          1       7    5dxy              8.424366      -7.315513
                                                         4.825220      -3.413151
                                                         2.198939      -2.673404
                                                         0.891661      -0.071673
                                                         0.316231       0.143450
                                                         0.103474       0.038042
                          1       7    5dxz              8.424366      -7.315513
                                                         4.825220      -3.413151
                                                         2.198939      -2.673404
                                                         0.891661      -0.071673
                                                         0.316231       0.143450
                                                         0.103474       0.038042
                          1       7    5dy2              8.424366      -4.223614
                                                         4.825220      -1.970584
                                                         2.198939      -1.543490
                                                         0.891661      -0.041381
                                                         0.316231       0.082821
                                                         0.103474       0.021964
                          1       7    5dyz              8.424366      -7.315513
                                                         4.825220      -3.413151
                                                         2.198939      -2.673404
                                                         0.891661      -0.071673
                                                         0.316231       0.143450
                                                         0.103474       0.038042
                          1       7    5dz2              8.424366      -4.223614
                                                         4.825220      -1.970584
                                                         2.198939      -1.543490
                                                         0.891661      -0.041381
                                                         0.316231       0.082821
                                                         0.103474       0.021964

     GTH Potential information for                                  GTH-BLYP-q16

       Description:                       Goedecker-Teter-Hutter pseudopotential
                                           Goedecker et al., PRB 54, 1703 (1996)
                                          Hartwigsen et al., PRB 58, 3641 (1998)
                                                      Krack, TCA 114, 145 (2005)

       Gaussian exponent of the core charge distribution:               3.858025
       Electronic configuration (s p d ...):                           4   6   6

       Parameters of the local part of the GTH pseudopotential:

                          rloc        C1          C2          C3          C4
                        0.360000    7.011025   -0.222747

       Parameters of the non-local part of the GTH pseudopotential:

                   l      r(l)      h(i,j,l)

                   0    0.276205    0.611496    7.992357
                                    7.992357  -10.318089
                   1    0.247130   -8.710556    8.684169
                                    8.684169  -10.275248
                   2    0.223534  -12.411504

     A DFT+U correction is applied to atoms of this atomic kind:
       Angular quantum momentum number L:                                      2
       U(eff) = (U - J) value in [eV]:                                     5.000

  2. Atomic kind: O                                     Number of atoms:      28

     Orbital Basis Set                                                   mod-DZV

       Number of orbital shell sets:                                           1
       Number of orbital shells:                                               4
       Number of primitive Cartesian functions:                                5
       Number of Cartesian basis functions:                                    8
       Number of spherical basis functions:                                    8
       Norm type:                                                              2

       Normalised Cartesian orbitals:

                        Set   Shell   Orbital            Exponent    Coefficient

                          1       1    2s               10.389228       0.396646
                                                         3.849621       0.208811
                                                         1.388401      -0.301641
                                                         0.496955      -0.274061
                                                         0.162492      -0.033677

                          1       2    3s               10.389228       0.303673
                                                         3.849621       0.240943
                                                         1.388401      -0.313066
                                                         0.496955      -0.043055
                                                         0.162492       0.213991

                          1       3    3px              10.389228      -1.530415
                                                         3.849621      -1.371928
                                                         1.388401      -0.761951
                                                         0.496955      -0.253695
                                                         0.162492      -0.035541
                          1       3    3py              10.389228      -1.530415
                                                         3.849621      -1.371928
                                                         1.388401      -0.761951
                                                         0.496955      -0.253695
                                                         0.162492      -0.035541
                          1       3    3pz              10.389228      -1.530415
                                                         3.849621      -1.371928
                                                         1.388401      -0.761951
                                                         0.496955      -0.253695
                                                         0.162492      -0.035541

                          1       4    4px              10.389228      -0.565392
                                                         3.849621      -0.038231
                                                         1.388401      -0.382373
                                                         0.496955       0.179070
                                                         0.162492       0.122714
                          1       4    4py              10.389228      -0.565392
                                                         3.849621      -0.038231
                                                         1.388401      -0.382373
                                                         0.496955       0.179070
                                                         0.162492       0.122714
                          1       4    4pz              10.389228      -0.565392
                                                         3.849621      -0.038231
                                                         1.388401      -0.382373
                                                         0.496955       0.179070
                                                         0.162492       0.122714

     GTH Potential information for                                   GTH-BLYP-q6

       Description:                       Goedecker-Teter-Hutter pseudopotential
                                           Goedecker et al., PRB 54, 1703 (1996)
                                          Hartwigsen et al., PRB 58, 3641 (1998)
                                                      Krack, TCA 114, 145 (2005)

       Gaussian exponent of the core charge distribution:               8.438331
       Electronic configuration (s p d ...):                               2   4

       Parameters of the local part of the GTH pseudopotential:

                          rloc        C1          C2          C3          C4
                        0.243420  -16.991892    2.566142

       Parameters of the non-local part of the GTH pseudopotential:

                   l      r(l)      h(i,j,l)

                   0    0.220831   18.388851
                   1    0.217201

  3. Atomic kind: H                                     Number of atoms:      42

     Orbital Basis Set                                                   mod-DZV

       Number of orbital shell sets:                                           1
       Number of orbital shells:                                               2
       Number of primitive Cartesian functions:                                5
       Number of Cartesian basis functions:                                    2
       Number of spherical basis functions:                                    2
       Norm type:                                                              2

       Normalised Cartesian orbitals:

                        Set   Shell   Orbital            Exponent    Coefficient

                          1       1    2s               10.068468      -0.133023
                                                         2.680223      -0.177618
                                                         0.791502      -0.258419
                                                         0.239116      -0.107525
                                                         0.082193      -0.014019

                          1       2    3s               10.068468       0.344673
                                                         2.680223       1.819821
                                                         0.791502      -0.999069
                                                         0.239116       0.017430
                                                         0.082193       0.082660

     GTH Potential information for                                   GTH-BLYP-q1

       Description:                       Goedecker-Teter-Hutter pseudopotential
                                           Goedecker et al., PRB 54, 1703 (1996)
                                          Hartwigsen et al., PRB 58, 3641 (1998)
                                                      Krack, TCA 114, 145 (2005)

       Gaussian exponent of the core charge distribution:              12.500000
       Electronic configuration (s p d ...):                                   1

       Parameters of the local part of the GTH pseudopotential:

                          rloc        C1          C2          C3          C4
                        0.200000   -4.195961    0.730498


 MOLECULE KIND INFORMATION


 All atoms are their own molecule, skipping detailed information


 TOTAL NUMBERS AND MAXIMUM NUMBERS

  Total number of            - Atomic kinds:                                   3
                             - Atoms:                                         77
                             - Shell sets:                                    77
                             - Shells:                                       245
                             - Primitive Cartesian functions:                392
                             - Cartesian basis functions:                    455
                             - Spherical basis functions:                    441

  Maximum angular momentum of- Orbital basis functions:                        2
                             - Local part of the GTH pseudopotential:          2
                             - Non-local part of the GTH pseudopotential:      3


 MODULE QUICKSTEP:  ATOMIC COORDINATES IN angstrom

  Atom  Kind  Element       X           Y           Z          Z(eff)       Mass

       1     1 Fe  26   18.339795    0.000001    0.000145     16.00      55.8450
       2     1 Fe  26   15.290078   -0.000034   -0.000033     16.00      55.8450
       3     1 Fe  26   12.215159   -0.000290    0.001203     16.00      55.8450
       4     1 Fe  26    9.140950    0.002206   -0.000238     16.00      55.8450
       5     1 Fe  26    6.126796    0.023951    0.000062     16.00      55.8450
       6     1 Fe  26    3.106481    0.000416   -0.000296     16.00      55.8450
       7     1 Fe  26    0.023361   -0.000998   -0.019694     16.00      55.8450
       8     2 O    8   18.320007    0.025313    2.114531      6.00      15.9994
       9     2 O    8   18.316485   -0.025608   -2.115335      6.00      15.9994
      10     2 O    8   19.858222   -1.258871    0.014082      6.00      15.9994
      11     2 O    8   19.857864    1.257479   -0.026250      6.00      15.9994
      12     2 O    8   15.280091    0.026540    2.119225      6.00      15.9994
      13     2 O    8   15.278719   -0.026573   -2.118817      6.00      15.9994
      14     2 O    8   16.815093   -1.261657    0.020360      6.00      15.9994
      15     2 O    8   16.815161    1.261522   -0.019562      6.00      15.9994
      16     2 O    8   12.245208    0.030808    2.135335      6.00      15.9994
      17     2 O    8   12.244886   -0.030806   -2.131215      6.00      15.9994
      18     2 O    8   13.772584   -1.257756    0.027465      6.00      15.9994
      19     2 O    8   13.773187    1.257452   -0.026438      6.00      15.9994
      20     2 O    8    9.227998   -0.023692    2.178027      6.00      15.9994
      21     2 O    8    9.228521    0.030008   -2.177750      6.00      15.9994
      22     2 O    8   10.738829   -1.262846   -0.012109      6.00      15.9994
      23     2 O    8   10.744144    1.264905    0.014554      6.00      15.9994
      24     2 O    8    6.118968    0.029808    2.224923      6.00      15.9994
      25     2 O    8    6.119658    0.031472   -2.223914      6.00      15.9994
      26     2 O    8    7.728264   -1.295868   -0.022387      6.00      15.9994
      27     2 O    8    7.749406    1.325345    0.021952      6.00      15.9994
      28     2 O    8    3.009722   -0.028577    2.166859      6.00      15.9994
      29     2 O    8    3.014274    0.027497   -2.170503      6.00      15.9994
      30     2 O    8    4.504199   -1.291534   -0.023039      6.00      15.9994
      31     2 O    8    4.477399    1.319112    0.023392      6.00      15.9994
      32     2 O    8   -0.024336    0.022997    2.114552      6.00      15.9994
      33     2 O    8   -0.029716   -0.023258   -2.159763      6.00      15.9994
      34     2 O    8    1.512207   -1.257368   -0.022654      6.00      15.9994
      35     2 O    8    1.507650    1.256781   -0.019049      6.00      15.9994
      36     3 H    1   18.386963   -0.841617   -2.671236      1.00       1.0079
      37     3 H    1   18.369954    0.784658   -2.680931      1.00       1.0079
      38     3 H    1   18.362956   -0.785058    2.681416      1.00       1.0079
      39     3 H    1   18.382632    0.841541    2.671297      1.00       1.0079
      40     3 H    1   19.866029   -2.247725    0.017022      1.00       1.0079
      41     3 H    1   19.867456    2.246292   -0.027977      1.00       1.0079
      42     3 H    1   15.180373   -0.843983   -2.670788      1.00       1.0079
      43     3 H    1   15.172610    0.781448   -2.680022      1.00       1.0079
      44     3 H    1   15.171714   -0.781556    2.680385      1.00       1.0079
      45     3 H    1   15.173537    0.843905    2.669809      1.00       1.0079
      46     3 H    1   16.813098   -2.250518    0.023775      1.00       1.0079
      47     3 H    1   16.813226    2.250379   -0.024494      1.00       1.0079
      48     3 H    1   11.999937   -0.842759   -2.644975      1.00       1.0079
      49     3 H    1   12.058890    0.777787   -2.674586      1.00       1.0079
      50     3 H    1   12.064631   -0.778571    2.679426      1.00       1.0079
      51     3 H    1   11.989136    0.841497    2.645631      1.00       1.0079
      52     3 H    1   13.760398   -2.246503    0.026257      1.00       1.0079
      53     3 H    1   13.760396    2.246174   -0.025461      1.00       1.0079
      54     3 H    1    9.019219   -0.775746   -2.712553      1.00       1.0079
      55     3 H    1    9.033732    0.849742   -2.697304      1.00       1.0079
      56     3 H    1    9.045273   -0.843218    2.702827      1.00       1.0079
      57     3 H    1    9.006800    0.781960    2.707498      1.00       1.0079
      58     3 H    1   10.711514   -2.250611   -0.006653      1.00       1.0079
      59     3 H    1   10.717559    2.252531    0.007965      1.00       1.0079
      60     3 H    1    6.124434   -0.787463   -2.780125      1.00       1.0079
      61     3 H    1    6.128549    0.840296   -2.792183      1.00       1.0079
      62     3 H    1    6.127958   -0.777437    2.795944      1.00       1.0079
      63     3 H    1    6.127734    0.850247    2.778995      1.00       1.0079
      64     3 H    1    7.711407   -2.282488   -0.022642      1.00       1.0079
      65     3 H    1    7.749687    2.312357    0.024955      1.00       1.0079
      66     3 H    1    3.219721   -0.777375   -2.711759      1.00       1.0079
      67     3 H    1    3.202306    0.848437   -2.693455      1.00       1.0079
      68     3 H    1    3.185543   -0.849760    2.693970      1.00       1.0079
      69     3 H    1    3.228916    0.775534    2.703745      1.00       1.0079
      70     3 H    1    4.525180   -2.278237   -0.026210      1.00       1.0079
      71     3 H    1    4.480669    2.306288    0.024612      1.00       1.0079
      72     3 H    1    0.172363   -0.835546   -2.689779      1.00       1.0079
      73     3 H    1    0.141781    0.787630   -2.704206      1.00       1.0079
      74     3 H    1    0.128955   -0.787621    2.664842      1.00       1.0079
      75     3 H    1    0.176508    0.835033    2.645272      1.00       1.0079
      76     3 H    1    1.537949   -2.245354   -0.019107      1.00       1.0079
      77     3 H    1    1.533972    2.244634   -0.018920      1.00       1.0079




 SCF PARAMETERS         Density guess:                                   RESTART
                        --------------------------------------------------------
                        max_scf:                                            1000
                        max_scf_history:                                       0
                        max_diis:                                              4
                        --------------------------------------------------------
                        eps_scf:                                        1.00E-06
                        eps_scf_history:                                0.00E+00
                        eps_diis:                                       1.00E-01
                        eps_eigval:                                     1.00E-05
                        --------------------------------------------------------
                        level_shift [a.u.]:                                 0.00
                        --------------------------------------------------------
                        Outer loop SCF in use 
                        No variables optimised in outer loop
                        eps_scf                                         1.00E-06
                        max_scf                                              500
                        No outer loop optimization
                        step_size                                       5.00E-01

 PW_GRID| Information for grid number                                          1
 PW_GRID| Grid distributed over                                    32 processors
 PW_GRID| Real space group dimensions                                    32    1
 PW_GRID| the grid is blocked:                                                NO
 PW_GRID| Cutoff [a.u.]                                                    325.0
 PW_GRID| spherical cutoff:                                                   NO
 PW_GRID|   Bounds   1           -165     164                Points:         330
 PW_GRID|   Bounds   2           -270     269                Points:         540
 PW_GRID|   Bounds   3           -270     269                Points:         540
 PW_GRID| Volume element (a.u.^3)  0.1837E-02     Volume (a.u.^3)    176783.5904
 PW_GRID| Grid span                                                    FULLSPACE
 PW_GRID|   Distribution                         Average         Max         Min
 PW_GRID|   G-Vectors                          3007125.0     3007290     3006960
 PW_GRID|   G-Rays                                9112.5        9113        9112
 PW_GRID|   Real Space Points                  3007125.0     3207600     2916000

 PW_GRID| Information for grid number                                          2
 PW_GRID| Grid distributed over                                    32 processors
 PW_GRID| Real space group dimensions                                    32    1
 PW_GRID| the grid is blocked:                                                NO
 PW_GRID| Cutoff [a.u.]                                                    108.3
 PW_GRID| spherical cutoff:                                                   NO
 PW_GRID|   Bounds   1            -94      94                Points:         189
 PW_GRID|   Bounds   2           -157     157                Points:         315
 PW_GRID|   Bounds   3           -157     157                Points:         315
 PW_GRID| Volume element (a.u.^3)  0.9427E-02     Volume (a.u.^3)    176783.5904
 PW_GRID| Grid span                                                    FULLSPACE
 PW_GRID|   Distribution                         Average         Max         Min
 PW_GRID|   G-Vectors                           586047.7      586278      585900
 PW_GRID|   G-Rays                                3100.8        3102        3100
 PW_GRID|   Real Space Points                   586047.7      595350      496125

 PW_GRID| Information for grid number                                          3
 PW_GRID| Grid distributed over                                    32 processors
 PW_GRID| Real space group dimensions                                    32    1
 PW_GRID| the grid is blocked:                                                NO
 PW_GRID| Cutoff [a.u.]                                                     36.1
 PW_GRID| spherical cutoff:                                                   NO
 PW_GRID|   Bounds   1            -55      54                Points:         110
 PW_GRID|   Bounds   2            -90      89                Points:         180
 PW_GRID|   Bounds   3            -90      89                Points:         180
 PW_GRID| Volume element (a.u.^3)  0.4960E-01     Volume (a.u.^3)    176783.5904
 PW_GRID| Grid span                                                    FULLSPACE
 PW_GRID|   Distribution                         Average         Max         Min
 PW_GRID|   G-Vectors                           111375.0      111540      111210
 PW_GRID|   G-Rays                                1012.5        1014        1011
 PW_GRID|   Real Space Points                   111375.0      129600       97200

 PW_GRID| Information for grid number                                          4
 PW_GRID| Grid distributed over                                    32 processors
 PW_GRID| Real space group dimensions                                    32    1
 PW_GRID| the grid is blocked:                                                NO
 PW_GRID| Cutoff [a.u.]                                                     12.0
 PW_GRID| spherical cutoff:                                                   NO
 PW_GRID|   Bounds   1            -31      31                Points:          63
 PW_GRID|   Bounds   2            -52      52                Points:         105
 PW_GRID|   Bounds   3            -52      52                Points:         105
 PW_GRID| Volume element (a.u.^3)  0.2545         Volume (a.u.^3)    176783.5904
 PW_GRID| Grid span                                                    FULLSPACE
 PW_GRID|   Distribution                         Average         Max         Min
 PW_GRID|   G-Vectors                            21705.5       21798       21609
 PW_GRID|   G-Rays                                 344.5         346         343
 PW_GRID|   Real Space Points                    21705.5       22050       11025

 PW_GRID| Information for grid number                                          5
 PW_GRID| Grid distributed over                                    32 processors
 PW_GRID| Real space group dimensions                                    32    1
 PW_GRID| the grid is blocked:                                                NO
 PW_GRID| Cutoff [a.u.]                                                      4.0
 PW_GRID| spherical cutoff:                                                   NO
 PW_GRID|   Bounds   1            -20      19                Points:          40
 PW_GRID|   Bounds   2            -30      29                Points:          60
 PW_GRID|   Bounds   3            -30      29                Points:          60
 PW_GRID| Volume element (a.u.^3)   1.228         Volume (a.u.^3)    176783.5904
 PW_GRID| Grid span                                                    FULLSPACE
 PW_GRID|   Distribution                         Average         Max         Min
 PW_GRID|   G-Vectors                             4500.0        4520        4480
 PW_GRID|   G-Rays                                 112.5         113         112
 PW_GRID|   Real Space Points                     4500.0        7200        3600

 PW_GRID| Information for grid number                                          6
 PW_GRID| Grid distributed over                                    32 processors
 PW_GRID| Real space group dimensions                                     4    8
 PW_GRID| the grid is blocked:                                                NO
 PW_GRID| Cutoff [a.u.]                                                      1.3
 PW_GRID| spherical cutoff:                                                   NO
 PW_GRID|   Bounds   1            -10      10                Points:          21
 PW_GRID|   Bounds   2            -17      17                Points:          35
 PW_GRID|   Bounds   3            -17      17                Points:          35
 PW_GRID| Volume element (a.u.^3)   6.872         Volume (a.u.^3)    176783.5904
 PW_GRID| Grid span                                                    FULLSPACE
 PW_GRID|   Distribution                         Average         Max         Min
 PW_GRID|   G-Vectors                              803.9         903         714
 PW_GRID|   G-Rays                                  38.3          43          34
 PW_GRID|   Real Space Points                      803.9        1050         700

 PW_GRID| Information for grid number                                          7
 PW_GRID| Grid distributed over                                    32 processors
 PW_GRID| Real space group dimensions                                     4    8
 PW_GRID| the grid is blocked:                                                NO
 PW_GRID| Cutoff [a.u.]                                                      0.4
 PW_GRID| spherical cutoff:                                                   NO
 PW_GRID|   Bounds   1             -7       6                Points:          14
 PW_GRID|   Bounds   2            -10       9                Points:          20
 PW_GRID|   Bounds   3            -10       9                Points:          20
 PW_GRID| Volume element (a.u.^3)   31.57         Volume (a.u.^3)    176783.5904
 PW_GRID| Grid span                                                    FULLSPACE
 PW_GRID|   Distribution                         Average         Max         Min
 PW_GRID|   G-Vectors                              175.0         182         168
 PW_GRID|   G-Rays                                  12.5          13          12
 PW_GRID|   Real Space Points                      175.0         240         120

 PW_GRID| Information for grid number                                          8
 PW_GRID| Grid distributed over                                    32 processors
 PW_GRID| Real space group dimensions                                     4    8
 PW_GRID| the grid is blocked:                                                NO
 PW_GRID| Cutoff [a.u.]                                                      0.1
 PW_GRID| spherical cutoff:                                                   NO
 PW_GRID|   Bounds   1             -3       3                Points:           7
 PW_GRID|   Bounds   2             -5       5                Points:          11
 PW_GRID|   Bounds   3             -5       5                Points:          11
 PW_GRID| Volume element (a.u.^3)   208.7         Volume (a.u.^3)    176783.5904
 PW_GRID| Grid span                                                    FULLSPACE
 PW_GRID|   Distribution                         Average         Max         Min
 PW_GRID|   G-Vectors                               26.5          42          14
 PW_GRID|   G-Rays                                   3.8           6           2
 PW_GRID|   Real Space Points                       26.5          44          11

 PW_GRID| Information for grid number                                          9
 PW_GRID| Grid distributed over                                    32 processors
 PW_GRID| Real space group dimensions                                     4    8
 PW_GRID| the grid is blocked:                                                NO
 PW_GRID| Cutoff [a.u.]                                                      0.0
 PW_GRID| spherical cutoff:                                                   NO
 PW_GRID|   Bounds   1             -2       2                Points:           5
 PW_GRID|   Bounds   2             -3       3                Points:           7
 PW_GRID|   Bounds   3             -3       3                Points:           7
 PW_GRID| Volume element (a.u.^3)   721.6         Volume (a.u.^3)    176783.5904
 PW_GRID| Grid span                                                    FULLSPACE
 PW_GRID|   Distribution                         Average         Max         Min
 PW_GRID|   G-Vectors                                7.7          15           0
 PW_GRID|   G-Rays                                   1.5           3           0
 PW_GRID|   Real Space Points                        7.7          14           0

 PW_GRID| Information for grid number                                         10
 PW_GRID| Grid distributed over                                    32 processors
 PW_GRID| Real space group dimensions                                     4    8
 PW_GRID| the grid is blocked:                                                NO
 PW_GRID| Cutoff [a.u.]                                                      0.0
 PW_GRID| spherical cutoff:                                                   NO
 PW_GRID|   Bounds   1             -1       1                Points:           3
 PW_GRID|   Bounds   2             -1       1                Points:           3
 PW_GRID|   Bounds   3             -1       1                Points:           3
 PW_GRID| Volume element (a.u.^3)   6548.         Volume (a.u.^3)    176783.5904
 PW_GRID| Grid span                                                    FULLSPACE
 PW_GRID|   Distribution                         Average         Max         Min
 PW_GRID|   G-Vectors                                0.8           3           0
 PW_GRID|   G-Rays                                   0.3           1           0
 PW_GRID|   Real Space Points                        0.8           3           0

 POISSON| Solver                                                        PERIODIC
 POISSON| Periodicity                                                        XYZ

 RS_GRID| Information for grid number                                          1
 RS_GRID|   Bounds   1           -165     164                Points:         330
 RS_GRID|   Bounds   2           -270     269                Points:         540
 RS_GRID|   Bounds   3           -270     269                Points:         540
 RS_GRID| Real space distribution over                                  4 groups
 RS_GRID| Real space distribution along direction                              2
 RS_GRID| Border size                                                         25
 RS_GRID| Real space distribution over                                  8 groups
 RS_GRID| Real space distribution along direction                              3
 RS_GRID| Border size                                                         25
 RS_GRID|   Distribution                         Average         Max         Min
 RS_GRID|   Planes                                 185.0         185         185
 RS_GRID|   Distribution                         Average         Max         Min
 RS_GRID|   Planes                                 117.5         118         117

 RS_GRID| Information for grid number                                          2
 RS_GRID|   Bounds   1            -94      94                Points:         189
 RS_GRID|   Bounds   2           -157     157                Points:         315
 RS_GRID|   Bounds   3           -157     157                Points:         315
 RS_GRID| Real space distribution over                                  4 groups
 RS_GRID| Real space distribution along direction                              2
 RS_GRID| Border size                                                         28
 RS_GRID| Real space distribution over                                  8 groups
 RS_GRID| Real space distribution along direction                              3
 RS_GRID| Border size                                                         28
 RS_GRID|   Distribution                         Average         Max         Min
 RS_GRID|   Planes                                 134.8         135         134
 RS_GRID|   Distribution                         Average         Max         Min
 RS_GRID|   Planes                                  95.4          96          95

 RS_GRID| Information for grid number                                          3
 RS_GRID|   Bounds   1            -55      54                Points:         110
 RS_GRID|   Bounds   2            -90      89                Points:         180
 RS_GRID|   Bounds   3            -90      89                Points:         180
 RS_GRID| Real space fully replicated
 RS_GRID| Group size                                                           1

 RS_GRID| Information for grid number                                          4
 RS_GRID|   Bounds   1            -31      31                Points:          63
 RS_GRID|   Bounds   2            -52      52                Points:         105
 RS_GRID|   Bounds   3            -52      52                Points:         105
 RS_GRID| Real space fully replicated
 RS_GRID| Group size                                                           1

 RS_GRID| Information for grid number                                          5
 RS_GRID|   Bounds   1            -20      19                Points:          40
 RS_GRID|   Bounds   2            -30      29                Points:          60
 RS_GRID|   Bounds   3            -30      29                Points:          60
 RS_GRID| Real space fully replicated
 RS_GRID| Group size                                                           1

 RS_GRID| Information for grid number                                          6
 RS_GRID|   Bounds   1            -10      10                Points:          21
 RS_GRID|   Bounds   2            -17      17                Points:          35
 RS_GRID|   Bounds   3            -17      17                Points:          35
 RS_GRID| Real space fully replicated
 RS_GRID| Group size                                                           1

 RS_GRID| Information for grid number                                          7
 RS_GRID|   Bounds   1             -7       6                Points:          14
 RS_GRID|   Bounds   2            -10       9                Points:          20
 RS_GRID|   Bounds   3            -10       9                Points:          20
 RS_GRID| Real space fully replicated
 RS_GRID| Group size                                                           1

 RS_GRID| Information for grid number                                          8
 RS_GRID|   Bounds   1             -3       3                Points:           7
 RS_GRID|   Bounds   2             -5       5                Points:          11
 RS_GRID|   Bounds   3             -5       5                Points:          11
 RS_GRID| Real space fully replicated
 RS_GRID| Group size                                                           1

 RS_GRID| Information for grid number                                          9
 RS_GRID|   Bounds   1             -2       2                Points:           5
 RS_GRID|   Bounds   2             -3       3                Points:           7
 RS_GRID|   Bounds   3             -3       3                Points:           7
 RS_GRID| Real space fully replicated
 RS_GRID| Group size                                                           1

 RS_GRID| Information for grid number                                         10
 RS_GRID|   Bounds   1             -1       1                Points:           3
 RS_GRID|   Bounds   2             -1       1                Points:           3
 RS_GRID|   Bounds   3             -1       1                Points:           3
 RS_GRID| Real space fully replicated
 RS_GRID| Group size                                                           1

 Spin 1

 Number of electrons:                                                        175
 Number of occupied orbitals:                                                175
 Number of molecular orbitals:                                               175

 Spin 2

 Number of electrons:                                                        141
 Number of occupied orbitals:                                                141
 Number of molecular orbitals:                                               141

 Number of orbital functions:                                                441
 Number of independent orbital functions:                                    441

 Extrapolation method: initial_guess


 SCF WAVEFUNCTION OPTIMIZATION

  ----------------------------------- OT ---------------------------------------
  Minimizer      : CG                  : conjugate gradient
  Preconditioner : FULL_KINETIC        : inversion of T + eS
  Precond_solver : DEFAULT
  Line search    : 2PNT                : 2 energies, one gradient
  stepsize       :    0.15000000                  energy_gap     :    0.20000000
  eps_taylor     :   0.10000E-15                  max_taylor     :             4
  ----------------------------------- OT ---------------------------------------

  Step     Update method      Time    Convergence         Total energy    Change
  ------------------------------------------------------------------------------

 *** WARNING in dft_plus_u.F:1457 :: DFT+U energy contibution is negative ***
 *** possibly due to unphysical Mulliken charges. Check your input, if    ***
 *** this warning persists or try a different method!                     ***

     1 OT CG       0.15E+00   10.3     0.00092952     -1335.4055733780 -1.34E+03

 *** WARNING in dft_plus_u.F:1457 :: DFT+U energy contibution is negative ***
 *** possibly due to unphysical Mulliken charges. Check your input, if    ***
 *** this warning persists or try a different method!                     ***

     2 OT LS       0.60E+00    6.5                    -1335.4222783035

 *** WARNING in dft_plus_u.F:1457 :: DFT+U energy contibution is negative ***
 *** possibly due to unphysical Mulliken charges. Check your input, if    ***
 *** this warning persists or try a different method!                     ***

     3 OT CG       0.60E+00   12.9     0.00049910     -1335.4560878862 -5.05E-02

 *** WARNING in dft_plus_u.F:1457 :: DFT+U energy contibution is negative ***
 *** possibly due to unphysical Mulliken charges. Check your input, if    ***
 *** this warning persists or try a different method!                     ***

     4 OT LS       0.90E+00    6.5                    -1335.4699789485

 *** WARNING in dft_plus_u.F:1457 :: DFT+U energy contibution is negative ***
 *** possibly due to unphysical Mulliken charges. Check your input, if    ***
 *** this warning persists or try a different method!                     ***

     5 OT CG       0.90E+00   12.8     0.00056199     -1335.4717238007 -1.56E-02

 *** WARNING in dft_plus_u.F:1457 :: DFT+U energy contibution is negative ***
 *** possibly due to unphysical Mulliken charges. Check your input, if    ***
 *** this warning persists or try a different method!                     ***

     6 OT LS       0.38E+00    6.6                    -1335.4649020479

 *** WARNING in dft_plus_u.F:1457 :: DFT+U energy contibution is negative ***
 *** possibly due to unphysical Mulliken charges. Check your input, if    ***
 *** this warning persists or try a different method!                     ***

     7 OT CG       0.38E+00   12.8     0.00031056     -1335.4801849784 -8.46E-03

 *** WARNING in dft_plus_u.F:1457 :: DFT+U energy contibution is negative ***
 *** possibly due to unphysical Mulliken charges. Check your input, if    ***
 *** this warning persists or try a different method!                     ***

     8 OT LS       0.35E+00    6.5                    -1335.4825312949

 *** WARNING in dft_plus_u.F:1457 :: DFT+U energy contibution is negative ***
 *** possibly due to unphysical Mulliken charges. Check your input, if    ***
 *** this warning persists or try a different method!                     ***

     9 OT CG       0.35E+00   12.9     0.00022215     -1335.4825512615 -2.37E-03

 *** WARNING in dft_plus_u.F:1457 :: DFT+U energy contibution is negative ***
 *** possibly due to unphysical Mulliken charges. Check your input, if    ***
 *** this warning persists or try a different method!                     ***

    10 OT LS       0.48E+00    6.5                    -1335.4840805754

 *** WARNING in dft_plus_u.F:1457 :: DFT+U energy contibution is negative ***
 *** possibly due to unphysical Mulliken charges. Check your input, if    ***
 *** this warning persists or try a different method!                     ***

    11 OT CG       0.48E+00   12.8     0.00021134     -1335.4841948103 -1.64E-03

 *** WARNING in dft_plus_u.F:1457 :: DFT+U energy contibution is negative ***
 *** possibly due to unphysical Mulliken charges. Check your input, if    ***
 *** this warning persists or try a different method!                     ***

    12 OT LS       0.44E+00    6.5                    -1335.4855563729

 *** WARNING in dft_plus_u.F:1457 :: DFT+U energy contibution is negative ***
 *** possibly due to unphysical Mulliken charges. Check your input, if    ***
 *** this warning persists or try a different method!                     ***

    13 OT CG       0.44E+00   12.9     0.00013663     -1335.4855662391 -1.37E-03

 *** WARNING in dft_plus_u.F:1457 :: DFT+U energy contibution is negative ***
 *** possibly due to unphysical Mulliken charges. Check your input, if    ***
 *** this warning persists or try a different method!                     ***

    14 OT LS       0.35E+00    6.5                    -1335.4859992414

 *** WARNING in dft_plus_u.F:1457 :: DFT+U energy contibution is negative ***
 *** possibly due to unphysical Mulliken charges. Check your input, if    ***
 *** this warning persists or try a different method!                     ***

    15 OT CG       0.35E+00   12.9     0.00010448     -1335.4860267975 -4.61E-04

 *** WARNING in dft_plus_u.F:1457 :: DFT+U energy contibution is negative ***
 *** possibly due to unphysical Mulliken charges. Check your input, if    ***
 *** this warning persists or try a different method!                     ***

    16 OT LS       0.58E+00    6.5                    -1335.4864019158

 *** WARNING in dft_plus_u.F:1457 :: DFT+U energy contibution is negative ***
 *** possibly due to unphysical Mulliken charges. Check your input, if    ***
 *** this warning persists or try a different method!                     ***

    17 OT CG       0.58E+00   12.8     0.00012129     -1335.4864703964 -4.44E-04

 *** WARNING in dft_plus_u.F:1457 :: DFT+U energy contibution is negative ***
 *** possibly due to unphysical Mulliken charges. Check your input, if    ***
 *** this warning persists or try a different method!                     ***

    18 OT LS       0.62E+00    6.5                    -1335.4871030225

 *** WARNING in dft_plus_u.F:1457 :: DFT+U energy contibution is negative ***
 *** possibly due to unphysical Mulliken charges. Check your input, if    ***
 *** this warning persists or try a different method!                     ***

    19 OT CG       0.62E+00   12.9     0.00012606     -1335.4871051562 -6.35E-04

 *** WARNING in dft_plus_u.F:1457 :: DFT+U energy contibution is negative ***
 *** possibly due to unphysical Mulliken charges. Check your input, if    ***
 *** this warning persists or try a different method!                     ***

    20 OT LS       0.50E+00    6.5                    -1335.4876330839

 *** WARNING in dft_plus_u.F:1457 :: DFT+U energy contibution is negative ***
 *** possibly due to unphysical Mulliken charges. Check your input, if    ***
 *** this warning persists or try a different method!                     ***

    21 OT CG       0.50E+00   12.9     0.00011629     -1335.4876626205 -5.57E-04

 *** WARNING in dft_plus_u.F:1457 :: DFT+U energy contibution is negative ***
 *** possibly due to unphysical Mulliken charges. Check your input, if    ***
 *** this warning persists or try a different method!                     ***

    22 OT LS       0.60E+00    6.5                    -1335.4882144798

 *** WARNING in dft_plus_u.F:1457 :: DFT+U energy contibution is negative ***
 *** possibly due to unphysical Mulliken charges. Check your input, if    ***
 *** this warning persists or try a different method!                     ***

    23 OT CG       0.60E+00   12.9     0.00012954     -1335.4882296068 -5.67E-04

 *** WARNING in dft_plus_u.F:1457 :: DFT+U energy contibution is negative ***
 *** possibly due to unphysical Mulliken charges. Check your input, if    ***
 *** this warning persists or try a different method!                     ***

    24 OT LS       0.59E+00    6.5                    -1335.4889191786

 *** WARNING in dft_plus_u.F:1457 :: DFT+U energy contibution is negative ***
 *** possibly due to unphysical Mulliken charges. Check your input, if    ***
 *** this warning persists or try a different method!                     ***

    25 OT CG       0.59E+00   12.9     0.00011648     -1335.4889194552 -6.90E-04

 *** WARNING in dft_plus_u.F:1457 :: DFT+U energy contibution is negative ***
 *** possibly due to unphysical Mulliken charges. Check your input, if    ***
 *** this warning persists or try a different method!                     ***

    26 OT LS       0.48E+00    6.8                    -1335.4893448123

 *** WARNING in dft_plus_u.F:1457 :: DFT+U energy contibution is negative ***
 *** possibly due to unphysical Mulliken charges. Check your input, if    ***
 *** this warning persists or try a different method!                     ***

    27 OT CG       0.48E+00   12.8     0.00008747     -1335.4893702597 -4.51E-04

 *** WARNING in dft_plus_u.F:1457 :: DFT+U energy contibution is negative ***
 *** possibly due to unphysical Mulliken charges. Check your input, if    ***
 *** this warning persists or try a different method!                     ***

    28 OT LS       0.47E+00    6.6                    -1335.4896222137

 *** WARNING in dft_plus_u.F:1457 :: DFT+U energy contibution is negative ***
 *** possibly due to unphysical Mulliken charges. Check your input, if    ***
 *** this warning persists or try a different method!                     ***

    29 OT CG       0.47E+00   12.8     0.00008047     -1335.4896222318 -2.52E-04

 *** WARNING in dft_plus_u.F:1457 :: DFT+U energy contibution is negative ***
 *** possibly due to unphysical Mulliken charges. Check your input, if    ***
 *** this warning persists or try a different method!                     ***

    30 OT LS       0.52E+00    6.5                    -1335.4898537517

 *** WARNING in dft_plus_u.F:1457 :: DFT+U energy contibution is negative ***
 *** possibly due to unphysical Mulliken charges. Check your input, if    ***
 *** this warning persists or try a different method!                     ***

    31 OT CG       0.52E+00   13.0     0.00007507     -1335.4898554537 -2.33E-04

 *** WARNING in dft_plus_u.F:1457 :: DFT+U energy contibution is negative ***
 *** possibly due to unphysical Mulliken charges. Check your input, if    ***
 *** this warning persists or try a different method!                     ***

    32 OT LS       0.42E+00    6.5                    -1335.4900136132

 *** WARNING in dft_plus_u.F:1457 :: DFT+U energy contibution is negative ***
 *** possibly due to unphysical Mulliken charges. Check your input, if    ***
 *** this warning persists or try a different method!                     ***

    33 OT CG       0.42E+00   12.9     0.00006078     -1335.4900217361 -1.66E-04

 *** WARNING in dft_plus_u.F:1457 :: DFT+U energy contibution is negative ***
 *** possibly due to unphysical Mulliken charges. Check your input, if    ***
 *** this warning persists or try a different method!                     ***

    34 OT LS       0.55E+00    6.6                    -1335.4901556268

 *** WARNING in dft_plus_u.F:1457 :: DFT+U energy contibution is negative ***
 *** possibly due to unphysical Mulliken charges. Check your input, if    ***
 *** this warning persists or try a different method!                     ***

    35 OT CG       0.55E+00   13.0     0.00006336     -1335.4901629834 -1.41E-04

 *** WARNING in dft_plus_u.F:1457 :: DFT+U energy contibution is negative ***
 *** possibly due to unphysical Mulliken charges. Check your input, if    ***
 *** this warning persists or try a different method!                     ***

    36 OT LS       0.63E+00    6.5                    -1335.4903368523

 *** WARNING in dft_plus_u.F:1457 :: DFT+U energy contibution is negative ***
 *** possibly due to unphysical Mulliken charges. Check your input, if    ***
 *** this warning persists or try a different method!                     ***

    37 OT CG       0.63E+00   13.0     0.00007076     -1335.4903399548 -1.77E-04

 *** WARNING in dft_plus_u.F:1457 :: DFT+U energy contibution is negative ***
 *** possibly due to unphysical Mulliken charges. Check your input, if    ***
 *** this warning persists or try a different method!                     ***

    38 OT LS       0.53E+00    6.5                    -1335.4905155592

 *** WARNING in dft_plus_u.F:1457 :: DFT+U energy contibution is negative ***
 *** possibly due to unphysical Mulliken charges. Check your input, if    ***
 *** this warning persists or try a different method!                     ***

    39 OT CG       0.53E+00   12.9     0.00006770     -1335.4905232137 -1.83E-04

 *** WARNING in dft_plus_u.F:1457 :: DFT+U energy contibution is negative ***
 *** possibly due to unphysical Mulliken charges. Check your input, if    ***
 *** this warning persists or try a different method!                     ***

    40 OT LS       0.54E+00    6.6                    -1335.4906945442

 *** WARNING in dft_plus_u.F:1457 :: DFT+U energy contibution is negative ***
 *** possibly due to unphysical Mulliken charges. Check your input, if    ***
 *** this warning persists or try a different method!                     ***

    41 OT CG       0.54E+00   12.8     0.00007016     -1335.4906946200 -1.71E-04

 *** WARNING in dft_plus_u.F:1457 :: DFT+U energy contibution is negative ***
 *** possibly due to unphysical Mulliken charges. Check your input, if    ***
 *** this warning persists or try a different method!                     ***

    42 OT LS       0.59E+00    6.6                    -1335.4908960982

 *** WARNING in dft_plus_u.F:1457 :: DFT+U energy contibution is negative ***
 *** possibly due to unphysical Mulliken charges. Check your input, if    ***
 *** this warning persists or try a different method!                     ***

    43 OT CG       0.59E+00   13.0     0.00007425     -1335.4908979041 -2.03E-04

 *** WARNING in dft_plus_u.F:1457 :: DFT+U energy contibution is negative ***
 *** possibly due to unphysical Mulliken charges. Check your input, if    ***
 *** this warning persists or try a different method!                     ***

    44 OT LS       0.66E+00    6.5                    -1335.4911472493

 *** WARNING in dft_plus_u.F:1457 :: DFT+U energy contibution is negative ***
 *** possibly due to unphysical Mulliken charges. Check your input, if    ***
 *** this warning persists or try a different method!                     ***

    45 OT CG       0.66E+00   12.9     0.00007691     -1335.4911494748 -2.52E-04

 *** WARNING in dft_plus_u.F:1457 :: DFT+U energy contibution is negative ***
 *** possibly due to unphysical Mulliken charges. Check your input, if    ***
 *** this warning persists or try a different method!                     ***

    46 OT LS       0.49E+00    6.7                    -1335.4913298413

 *** WARNING in dft_plus_u.F:1457 :: DFT+U energy contibution is negative ***
 *** possibly due to unphysical Mulliken charges. Check your input, if    ***
 *** this warning persists or try a different method!                     ***

    47 OT CG       0.49E+00   12.9     0.00007413     -1335.4913522397 -2.03E-04

 *** WARNING in dft_plus_u.F:1457 :: DFT+U energy contibution is negative ***
 *** possibly due to unphysical Mulliken charges. Check your input, if    ***
 *** this warning persists or try a different method!                     ***

    48 OT LS       0.53E+00    6.5                    -1335.4915532838

 *** WARNING in dft_plus_u.F:1457 :: DFT+U energy contibution is negative ***
 *** possibly due to unphysical Mulliken charges. Check your input, if    ***
 *** this warning persists or try a different method!                     ***

    49 OT CG       0.53E+00   13.0     0.00007791     -1335.4915541700 -2.02E-04

 *** WARNING in dft_plus_u.F:1457 :: DFT+U energy contibution is negative ***
 *** possibly due to unphysical Mulliken charges. Check your input, if    ***
 *** this warning persists or try a different method!                     ***

    50 OT LS       0.60E+00    6.5                    -1335.4918044869

 *** WARNING in dft_plus_u.F:1457 :: DFT+U energy contibution is negative ***
 *** possibly due to unphysical Mulliken charges. Check your input, if    ***
 *** this warning persists or try a different method!                     ***

    51 OT CG       0.60E+00   12.9     0.00008269     -1335.4918083088 -2.54E-04

 *** WARNING in dft_plus_u.F:1457 :: DFT+U energy contibution is negative ***
 *** possibly due to unphysical Mulliken charges. Check your input, if    ***
 *** this warning persists or try a different method!                     ***

    52 OT LS       0.58E+00    6.5                    -1335.4920827328

 *** WARNING in dft_plus_u.F:1457 :: DFT+U energy contibution is negative ***
 *** possibly due to unphysical Mulliken charges. Check your input, if    ***
 *** this warning persists or try a different method!                     ***

    53 OT CG       0.58E+00   13.0     0.00008603     -1335.4920832258 -2.75E-04

 *** WARNING in dft_plus_u.F:1457 :: DFT+U energy contibution is negative ***
 *** possibly due to unphysical Mulliken charges. Check your input, if    ***
 *** this warning persists or try a different method!                     ***

    54 OT LS       0.63E+00    6.6                    -1335.4924078588

 *** WARNING in dft_plus_u.F:1457 :: DFT+U energy contibution is negative ***
 *** possibly due to unphysical Mulliken charges. Check your input, if    ***
 *** this warning persists or try a different method!                     ***

    55 OT CG       0.63E+00   12.9     0.00009943     -1335.4924104524 -3.27E-04

 *** WARNING in dft_plus_u.F:1457 :: DFT+U energy contibution is negative ***
 *** possibly due to unphysical Mulliken charges. Check your input, if    ***
 *** this warning persists or try a different method!                     ***

    56 OT LS       0.58E+00    6.5                    -1335.4928053399

 *** WARNING in dft_plus_u.F:1457 :: DFT+U energy contibution is negative ***
 *** possibly due to unphysical Mulliken charges. Check your input, if    ***
 *** this warning persists or try a different method!                     ***

    57 OT CG       0.58E+00   12.9     0.00010741     -1335.4928092575 -3.99E-04
    58 OT LS       0.55E+00    6.5                    -1335.4932459672
    59 OT CG       0.55E+00   13.0     0.00011573     -1335.4932476993 -4.38E-04
[...]
 flops    19 x    19 x    15            134032080     100.0%      0.0%      0.0%
 flops    32 x    13 x    50            137654400     100.0%      0.0%      0.0%
 flops    32 x    13 x    51            140407488     100.0%      0.0%      0.0%
 flops     2 x    15 x     2            140555520     100.0%      0.0%      0.0%
 flops   111 x    13 x    55            140952240     100.0%      0.0%      0.0%
 flops   111 x    15 x    55            162637200     100.0%      0.0%      0.0%
 flops    19 x     8 x    13            171184832     100.0%      0.0%      0.0%
 flops     8 x    19 x    13            171184832     100.0%      0.0%      0.0%
 flops   110 x    13 x    13            172106220     100.0%      0.0%      0.0%
 flops    19 x    13 x     2            193163880     100.0%      0.0%      0.0%
 flops     2 x    13 x    19            193163880     100.0%      0.0%      0.0%
 flops    19 x     8 x    15            197520960     100.0%      0.0%      0.0%
 flops     8 x    19 x    15            197520960     100.0%      0.0%      0.0%
 flops    19 x    15 x     2            222546240     100.0%      0.0%      0.0%
 flops     2 x    15 x    19            222546240     100.0%      0.0%      0.0%
 flops   110 x    15 x    15            229135500     100.0%      0.0%      0.0%
 flops    45 x    13 x    55            283912200     100.0%      0.0%      0.0%
 flops     8 x     8 x    13            298608128     100.0%      0.0%      0.0%
 flops    19 x    13 x    19            305842810     100.0%      0.0%      0.0%
 flops     8 x    13 x     2            325328640     100.0%      0.0%      0.0%
 flops     2 x    13 x     8            325328640     100.0%      0.0%      0.0%
 flops    47 x    15 x    55            342150600     100.0%      0.0%      0.0%
 flops     8 x     8 x    15            344547840     100.0%      0.0%      0.0%
 flops    19 x    15 x    19            352364880     100.0%      0.0%      0.0%
 flops     8 x    15 x     2            374814720     100.0%      0.0%      0.0%
 flops     2 x    15 x     8            374814720     100.0%      0.0%      0.0%
 flops    45 x    32 x    13            375448320     100.0%      0.0%      0.0%
 flops    45 x    13 x    32            375448320     100.0%      0.0%      0.0%
 flops   110 x    13 x    55            419047200     100.0%      0.0%      0.0%
 flops    32 x    15 x    55            465907200     100.0%      0.0%      0.0%
 flops    64 x    15 x    55            465907200     100.0%      0.0%      0.0%
 flops   110 x    15 x    55            483516000     100.0%      0.0%      0.0%
 flops    19 x    13 x     8            515103680     100.0%      0.0%      0.0%
 flops     8 x    13 x    19            515103680     100.0%      0.0%      0.0%
 flops   111 x    13 x    32            569996544     100.0%      0.0%      0.0%
 flops   111 x    32 x    13            569996544     100.0%      0.0%      0.0%
 flops    19 x    15 x     8            593456640     100.0%      0.0%      0.0%
 flops     8 x    15 x    19            593456640     100.0%      0.0%      0.0%
 flops    32 x    13 x    55            605679360     100.0%      0.0%      0.0%
 flops    45 x    32 x    50            635328000     100.0%      0.0%      0.0%
 flops    45 x    32 x    51            648034560     100.0%      0.0%      0.0%
 flops   111 x    32 x    50            709689600     100.0%      0.0%      0.0%
 flops   111 x    32 x    51            723883392     100.0%      0.0%      0.0%
 flops    32 x    13 x    32            800956416     100.0%      0.0%      0.0%
 flops    32 x    32 x    13            800956416     100.0%      0.0%      0.0%
 flops   111 x    15 x    32            822110400     100.0%      0.0%      0.0%
 flops   111 x    32 x    15            822110400     100.0%      0.0%      0.0%
 flops    47 x    32 x    50            829456000     100.0%      0.0%      0.0%
 flops    47 x    32 x    51            846045120     100.0%      0.0%      0.0%
 flops     8 x    13 x     8            867543040     100.0%      0.0%      0.0%
 flops    47 x    15 x    32            882998400     100.0%      0.0%      0.0%
 flops    47 x    32 x    15            882998400     100.0%      0.0%      0.0%
 flops     2 x     2 x    32            919586304     100.0%      0.0%      0.0%
 flops     8 x    15 x     8            999505920     100.0%      0.0%      0.0%
 flops    64 x    32 x    50           1129472000     100.0%      0.0%      0.0%
 flops    64 x    32 x    51           1152061440     100.0%      0.0%      0.0%
 flops    64 x    32 x    15           1202380800     100.0%      0.0%      0.0%
 flops    32 x    15 x    32           1202380800     100.0%      0.0%      0.0%
 flops    32 x    32 x    15           1202380800     100.0%      0.0%      0.0%
 flops    64 x    15 x    32           1202380800     100.0%      0.0%      0.0%
 flops    19 x     2 x    32           1422150912     100.0%      0.0%      0.0%
 flops     2 x    19 x    32           1422150912     100.0%      0.0%      0.0%
 flops   110 x    32 x    13           1694584320     100.0%      0.0%      0.0%
 flops   110 x    13 x    32           1694584320     100.0%      0.0%      0.0%
 flops   110 x    32 x    50           2109888000     100.0%      0.0%      0.0%
 flops   110 x    32 x    51           2152085760     100.0%      0.0%      0.0%
 flops     8 x     2 x    32           2395201536     100.0%      0.0%      0.0%
 flops     2 x     8 x    32           2395201536     100.0%      0.0%      0.0%
 flops   110 x    32 x    15           2444112000     100.0%      0.0%      0.0%
 flops   110 x    15 x    32           2444112000     100.0%      0.0%      0.0%
 flops    32 x    32 x    50           2484838400     100.0%      0.0%      0.0%
 flops    32 x    32 x    51           2534535168     100.0%      0.0%      0.0%
 flops    19 x    19 x    32           2573415936     100.0%      0.0%      0.0%
 flops     2 x    32 x     2           2700472320     100.0%      0.0%      0.0%
 flops    45 x    32 x    55           2795443200     100.0%      0.0%      0.0%
 flops   111 x    32 x    55           3122634240     100.0%      0.0%      0.0%
 flops    47 x    32 x    55           3649606400     100.0%      0.0%      0.0%
 flops    45 x    32 x    32           3696721920     100.0%      0.0%      0.0%
 flops    19 x     8 x    32           3792402432     100.0%      0.0%      0.0%
 flops     8 x    19 x    32           3792402432     100.0%      0.0%      0.0%
 flops    19 x    32 x     2           4275747840     100.0%      0.0%      0.0%
 flops     2 x    32 x    19           4275747840     100.0%      0.0%      0.0%
 flops    64 x    32 x    55           4969676800     100.0%      0.0%      0.0%
 flops     8 x     8 x    32           6615318528     100.0%      0.0%      0.0%
 flops    19 x    32 x    19           6769934080     100.0%      0.0%      0.0%
 flops     8 x    32 x     2           7201259520     100.0%      0.0%      0.0%
 flops     2 x    32 x     8           7201259520     100.0%      0.0%      0.0%
 flops   110 x    32 x    55           9283507200     100.0%      0.0%      0.0%
 flops    47 x    32 x    32           9418649600     100.0%      0.0%      0.0%
 flops    32 x    32 x    55          10933288960     100.0%      0.0%      0.0%
 flops    19 x    32 x     8          11401994240     100.0%      0.0%      0.0%
 flops     8 x    32 x    19          11401994240     100.0%      0.0%      0.0%
 flops    64 x    32 x    32          12825395200     100.0%      0.0%      0.0%
 flops   111 x    32 x    32          14381451264     100.0%      0.0%      0.0%
 flops     8 x    32 x     8          19203358720     100.0%      0.0%      0.0%
 flops    32 x    32 x    32          20711735296     100.0%      0.0%      0.0%
 flops   110 x    32 x    32          42755665920     100.0%      0.0%      0.0%
 flops inhomo. stacks                 21141416600     100.0%      0.0%      0.0%
 flops total                       310.978210E+09     100.0%      0.0%      0.0%
 flops max/rank                     17.238747E+09     100.0%      0.0%      0.0%
 matmuls inhomo. stacks                    116600     100.0%      0.0%      0.0%
 matmuls total                           59593702     100.0%      0.0%      0.0%
 number of processed stacks               4967916     100.0%      0.0%      0.0%
 average stack size                                    12.0       0.0       0.0
 marketing flops                   337.229119E+09
 -------------------------------------------------------------------------------
 # multiplications                          14374
 max memory usage/rank               1.666294E+09
 # max total images/rank                        2
 # max 3D layers                                1
 # MPI messages exchanged                 9659328
 MPI messages size (bytes):
  total size                        85.761761E+09
  min size                           0.000000E+00
  max size                          54.168000E+03
  average size                       8.878646E+03
 MPI breakdown and total messages size (bytes):
             size <=      128             3566045                        0
       128 < size <=     8192             3020675              20351909928
      8192 < size <=    32768             2675456              46101246240
     32768 < size <=   131072              397152              19309629528
    131072 < size <=  4194304                   0                        0
   4194304 < size <= 16777216                   0                        0
  16777216 < size                               0                        0
 -------------------------------------------------------------------------------

 *** WARNING in dbcsr/mm/dbcsr_mm.F:268 :: Using a non-square number of ***
 *** MPI ranks might lead to poor performance.                          ***
 *** Used ranks: 32                                                     ***
 *** Suggested: 36 64                                                   ***

 -------------------------------------------------------------------------------

 MEMORY| Estimated peak process memory [MiB]                                1590

 -------------------------------------------------------------------------------
 ----                             MULTIGRID INFO                            ----
 -------------------------------------------------------------------------------
 count for grid        1:         973410          cutoff [a.u.]          325.00
 count for grid        2:         409490          cutoff [a.u.]          108.33
 count for grid        3:         252408          cutoff [a.u.]           36.11
 count for grid        4:          85749          cutoff [a.u.]           12.04
 count for grid        5:           2880          cutoff [a.u.]            4.01
 count for grid        6:              0          cutoff [a.u.]            1.34
 count for grid        7:              0          cutoff [a.u.]            0.45
 count for grid        8:              0          cutoff [a.u.]            0.15
 count for grid        9:              0          cutoff [a.u.]            0.05
 count for grid       10:              0          cutoff [a.u.]            0.02
 total gridlevel count  :        1723937

 -------------------------------------------------------------------------------
 -                                                                             -
 -                         MESSAGE PASSING PERFORMANCE                         -
 -                                                                             -
 -------------------------------------------------------------------------------

 ROUTINE             CALLS      AVE VOLUME [Bytes]
 MP_Group              480
 MP_Bcast            28355                  11864.
 MP_Allreduce       144024                    116.
 MP_Sync              8377
 MP_Alltoall         64880               20966182.
 MP_ISendRecv       328848                 160201.
 MP_Wait           1590308
 MP_comm_split         411
 MP_ISend           793722                 133582.
 MP_IRecv           798142                 131965.
 MP_Recv               322                  70560.
 MP_Memory          842382
 -------------------------------------------------------------------------------


 -------------------------------------------------------------------------------
 -                                                                             -
 -                           R E F E R E N C E S                               -
 -                                                                             -
 -------------------------------------------------------------------------------
 
 CP2K version 6.1, the CP2K developers group (2018).
 CP2K is freely available from https://www.cp2k.org/ .

 Schuett, Ole; Messmer, Peter; Hutter, Juerg; VandeVondele, Joost. 
 Electronic Structure Calculations on Graphics Processing Units, John Wiley & Sons, Ltd, 173-190 (2016). 
 GPU-Accelerated Sparse Matrix-Matrix Multiplication for Linear Scaling Density Functional Theory.
 http://dx.doi.org/10.1002/9781118670712.ch8


 Borstnik, U; VandeVondele, J; Weber, V; Hutter, J. 
 PARALLEL COMPUTING, 40 (5-6), 47-58 (2014). 
 Sparse matrix multiplication: The distributed block-compressed sparse
 row library.
 http://dx.doi.org/10.1016/j.parco.2014.03.012


 Hutter, J; Iannuzzi, M; Schiffmann, F; VandeVondele, J. 
 WILEY INTERDISCIPLINARY REVIEWS-COMPUTATIONAL MOLECULAR SCIENCE, 4 (1), 15-25 (2014). 
 CP2K: atomistic simulations of condensed matter systems.
 http://dx.doi.org/10.1002/wcms.1159


 Krack, M. 
 THEORETICAL CHEMISTRY ACCOUNTS, 114 (1-3), 145-152 (2005). 
 Pseudopotentials for H to Kr optimized for gradient-corrected
 exchange-correlation functionals.
 http://dx.doi.org/10.1007/s00214-005-0655-y


 VandeVondele, J; Krack, M; Mohamed, F; Parrinello, M; Chassaing, T;
 Hutter, J. COMPUTER PHYSICS COMMUNICATIONS, 167 (2), 103-128 (2005). 
 QUICKSTEP: Fast and accurate density functional calculations using a
 mixed Gaussian and plane waves approach.
 http://dx.doi.org/10.1016/j.cpc.2004.12.014


 Frigo, M; Johnson, SG. 
 PROCEEDINGS OF THE IEEE, 93 (2), 216-231 (2005). 
 The design and implementation of FFTW3.
 http://dx.doi.org/10.1109/JPROC.2004.840301


 VandeVondele, J; Hutter, J. 
 JOURNAL OF CHEMICAL PHYSICS, 118 (10), 4365-4369 (2003). 
 An efficient orbital transformation method for electronic structure
 calculations.
 http://dx.doi.org/10.1063/1.1543154


 Hartwigsen, C; Goedecker, S; Hutter, J. 
 PHYSICAL REVIEW B, 58 (7), 3641-3662 (1998). 
 Relativistic separable dual-space Gaussian pseudopotentials from H to Rn.
 http://dx.doi.org/10.1103/PhysRevB.58.3641


 Dudarev, SL; Botton, GA; Savrasov, SY; Humphreys, CJ; Sutton, AP. 
 PHYSICAL REVIEW B, 57 (3), 1505-1509 (1998). 
 Electron-energy-loss spectra and the structural stability of
 nickel oxide: An LSDA+U study.
 http://dx.doi.org/10.1103/PhysRevB.57.1505


 Lippert, G; Hutter, J; Parrinello, M. 
 MOLECULAR PHYSICS, 92 (3), 477-487 (1997). 
 A hybrid Gaussian and plane wave density functional scheme.
 http://dx.doi.org/10.1080/002689797170220


 Dudarev, SL; Manh, DN; Sutton, AP. 
 PHILOSOPHICAL MAGAZINE B, 75 (5), 613-628 (1997). 
 Effect of Mott-Hubbard correlations on the electronic
 structure and structural stability of uranium dioxide.
 http://dx.doi.org/10.1080/13642819708202343


 Goedecker, S; Teter, M; Hutter, J. 
 PHYSICAL REVIEW B, 54 (3), 1703-1710 (1996). 
 Separable dual-space Gaussian pseudopotentials.
 http://dx.doi.org/10.1103/PhysRevB.54.1703


 BECKE, AD. PHYSICAL REVIEW A, 38 (6), 3098-3100 (1988). 
 DENSITY-FUNCTIONAL EXCHANGE-ENERGY APPROXIMATION WITH CORRECT
 ASYMPTOTIC-BEHAVIOR.
 http://dx.doi.org/10.1103/PhysRevA.38.3098


 LEE, CT; YANG, WT; PARR, RG. 
 PHYSICAL REVIEW B, 37 (2), 785-789 (1988). 
 DEVELOPMENT OF THE COLLE-SALVETTI CORRELATION-ENERGY FORMULA INTO A
 FUNCTIONAL OF THE ELECTRON-DENSITY.
 http://dx.doi.org/10.1103/PhysRevB.37.785


 -------------------------------------------------------------------------------
 -                                                                             -
 -                                T I M I N G                                  -
 -                                                                             -
 -------------------------------------------------------------------------------
 SUBROUTINE                       CALLS  ASD         SELF TIME        TOTAL TIME
                                MAXIMUM       AVERAGE  MAXIMUM  AVERAGE  MAXIMUM
 CP2K                                 1  1.0    0.056    0.060 4313.503 4313.503
 qs_energies                          1  2.0    0.000    0.001 4312.071 4312.087
 scf_env_do_scf                       1  3.0    0.001    0.001 4307.641 4307.641
 scf_env_do_scf_inner_loop          441  4.0    0.017    0.037 4297.397 4297.409
 pw_transfer                      19662  9.3    1.169    1.298 3147.873 3177.794
 fft_wrap_pw1pw2                  18780 10.3    0.149    0.168 3125.941 3155.836
 qs_ks_update_qs_env                442  5.0    0.015    0.016 3054.319 3054.374
 rebuild_ks_matrix                  441  6.0    0.001    0.001 3054.196 3054.252
 qs_ks_build_kohn_sham_matrix       441  7.0    0.087    0.094 3054.195 3054.251
 fft_wrap_pw1pw2_330               6846 11.9  236.838  255.147 2989.805 2999.265
 qs_vxc_create                      441  8.0    0.008    0.009 2425.379 2428.430
 fft3d_ps                         18780 12.3 1524.561 1574.899 2339.795 2385.524
 xc_vxc_pw_create                   221  9.0   37.922   43.514 1660.314 1663.365
 xc_rho_set_and_dset_create         441 10.0   76.496   83.269 1515.546 1530.061
 qs_rho_update_rho                  442  5.0    0.003    0.004 1237.472 1237.497
 calculate_rho_elec                 884  6.0   49.219  117.864 1237.469 1237.493
 density_rs2pw                      884  7.0    0.077    0.083 1137.560 1168.201
 xc_exc_calc                        220  9.0    3.992    4.251  765.058  765.058
 x_to_yz                           5961 14.4  354.442  370.158  528.631  543.599
 sum_up_and_integrate               221  8.0    5.118    5.351  412.645  412.654
 integrate_v_rspace                 442  9.0   13.352   37.813  407.526  407.664
 rs_pw_transfer                   13264  9.0    0.107    0.122  373.766  396.142
 potential_pw2rs                    442 10.0    0.671    0.735  369.301  369.445
 mp_alltoall_z22v                 18780 14.3  311.731  358.988  311.731  358.988
 pw_scatter_p                      8171 13.5  308.507  328.925  308.507  328.925
 yz_to_x                           6189 12.6  148.210  151.560  285.659  307.928
 pw_gather_p                      10609 11.4  232.028  245.053  232.028  245.053
 rs_pw_transfer_RS2PW_330           886  9.0   79.349   85.191  157.666  186.010
 pw_derive                         3972 10.7  173.187  183.585  173.187  183.585
 fft_wrap_pw1pw2_110               1326 11.0    7.346    8.455  109.929  141.145
 mp_waitany                       95616 11.0  103.213  133.128  103.213  133.128
 pw_copy                           9272 10.8  106.509  111.691  106.509  111.691
 -------------------------------------------------------------------------------

 The number of warnings for this run is : 414
 
 -------------------------------------------------------------------------------
  **** **** ******  **  PROGRAM ENDED AT                 2019-08-11 10:44:13.270
 ***** ** ***  *** **   PROGRAM RAN ON            cpn-u23-19.cbls.ccr.buffalo.ed
 **    ****   ******    PROGRAM RAN BY                                  pavankum
 ***** **    ** ** **   PROGRAM PROCESS ID                                403987
  **** **  *******  **  PROGRAM STOPPED IN /projects/academic/mdupuis2/pavan/VAB
                                           _calculation/results_for_paper/3.1D_F
                                           e_7units/blyp_plusU5/def_opts/state1_
                                           at_point0_geo
