      77
 i =       12, E =     -1335.5401450203
 Fe        18.3385650124       -0.0000207270        0.0000252297
 Fe        15.2669297904       -0.0007027576        0.0020492621
 Fe        12.1835739053        0.0003995345        0.0000005065
 Fe         9.1696195291        0.0302493805       -0.0006044560
 Fe         6.1557467851        0.0003836161       -0.0000044006
 Fe         3.0727936072        0.0001675386        0.0000414667
 Fe         0.0007321738        0.0000137178        0.0001093923
  O        18.3342090091       -0.0327100480        2.1085027552
  O        18.3324876842        0.0326193564       -2.1083930604
  O        19.8610408506       -1.2533826867       -0.0251991004
  O        19.8610166536        1.2533274606        0.0250200844
  O        15.3185950562       -0.0332860607        2.1263580814
  O        15.3173476301        0.0330349465       -2.1215282755
  O        16.8187000137       -1.2498904534       -0.0257430439
  O        16.8187563580        1.2489162825        0.0270366976
  O        12.2833349261        0.0238773889        2.1660746327
  O        12.2834044974       -0.0249094096       -2.1657403193
  O        13.7793178101       -1.2486419652       -0.0216733168
  O        13.7834170083        1.2475188064        0.0245607767
  O         9.1702158214        0.0379357657        2.2251850886
  O         9.1702398259        0.0295972713       -2.2265160189
  O        10.7956492186       -1.2791211649        0.0277089798
  O        10.8278186382        1.3196972454       -0.0288532950
  O         6.0567575889        0.0239111556        2.1653565293
  O         6.0569099292       -0.0242999249       -2.1653429862
  O         7.5437802730       -1.2791455969        0.0277083502
  O         7.5127270221        1.3195257801       -0.0289255595
  O         3.0200381372       -0.0333594741        2.1211771249
  O         3.0202228249        0.0330566070       -2.1215392132
  O         4.5598161469       -1.2481246996       -0.0226711468
  O         4.5560804198        1.2483575986        0.0236110807
  O        -0.0193895828       -0.0325039423        2.1089228806
  O        -0.0197290527        0.0325133067       -2.1090253433
  O         1.5192036519       -1.2485812306       -0.0265771084
  O         1.5188546041        1.2485875656        0.0263955567
  H        18.2442334899       -0.7749251157       -2.6764139517
  H        18.2403500230        0.8510183154       -2.6603284497
  H        18.2419932180       -0.8510761934        2.6604599732
  H        18.2430087126        0.7748100177        2.6761412522
  H        19.8606488537       -2.2418978838       -0.0309370610
  H        19.8605112446        2.2418522470        0.0309590539
  H        15.1333272600       -0.7754292691       -2.6665254030
  H        15.1014687624        0.8459949694       -2.6480347938
  H        15.1072678324       -0.8462093788        2.6548255172
  H        15.1278675981        0.7753487654        2.6689199477
  H        16.8092527875       -2.2383898376       -0.0313136118
  H        16.8080744147        2.2373941648        0.0324373114
  H        12.1200294846       -0.8500573701       -2.6914512162
  H        12.0336556444        0.7736760805       -2.6982118978
  H        12.0445523517       -0.7747831525        2.7035802285
  H        12.1090796936        0.8498351259        2.6868624077
  H        13.7523197441       -2.2362301176       -0.0197003322
  H        13.7545823375        2.2348590023        0.0220999923
  H         9.1699594192       -0.7796412664       -2.7994836295
  H         9.1700759502        0.8477292257       -2.7866775026
  H         9.1701886906       -0.7802194775        2.7850810823
  H         9.1693575427        0.8472359744        2.7980860820
  H        10.7745774382       -2.2655130521        0.0281364101
  H        10.8229409327        2.3061776276       -0.0303627356
  H         6.2186954173       -0.8488034304       -2.6924523108
  H         6.3050675377        0.7750320930       -2.6973643858
  H         6.2941554806       -0.7747940508        2.7033094188
  H         6.2277729393        0.8499035283        2.6870605918
  H         7.5644964710       -2.2655579348        0.0278083115
  H         7.5170568943        2.3060019592       -0.0301753057
  H         3.1960581932       -0.7760705193       -2.6681358468
  H         3.2281984413        0.8457233701       -2.6515057840
  H         3.2233123819       -0.8467219575        2.6518314307
  H         3.1999408716        0.7753323808        2.6670639716
  H         4.5865668267       -2.2356740191       -0.0211194823
  H         4.5850474489        2.2357292825        0.0208420227
  H         0.0504552961       -0.7758377562       -2.6785875123
  H         0.0606468138        0.8502748637       -2.6636250488
  H         0.0594615971       -0.8501086814        2.6639519840
  H         0.0508772005        0.7760308201        2.6782494808
  H         1.5285871315       -2.2370812061       -0.0327765809
  H         1.5284664963        2.2370980364        0.0323372016
