      77
 i =       32, E =     -1335.5834078477
 Fe        18.3402119149       -0.0000526623       -0.0002859490
 Fe        15.2924962452        0.0000039662        0.0000490459
 Fe        12.2194009024       -0.0005432290        0.0000707311
 Fe         9.1382004430       -0.0000592015       -0.0000240363
 Fe         6.1238262418        0.0138923840        0.0012243800
 Fe         3.1097452593       -0.0000505300        0.0000265210
 Fe         0.0259669867       -0.0006173996        0.0000676495
  O        18.3164524804        0.0331477354        2.0933206169
  O        18.3164295126       -0.0332016982       -2.0932285263
  O        19.8592435608       -1.2209301529        0.0268468923
  O        19.8591740836        1.2201057419       -0.0267462266
  O        15.2733556278        0.0331049192        2.0946436340
  O        15.2732649345       -0.0331449466       -2.0945666978
  O        16.8147165813       -1.2264910135        0.0276372078
  O        16.8147187482        1.2263170319       -0.0275931718
  O        12.2366772473        0.0294616565        2.1050733291
  O        12.2367335771       -0.0297685635       -2.1050257597
  O        13.7700676308       -1.2209101348        0.0268371961
  O        13.7701541036        1.2201319316       -0.0267101640
  O         9.2316457953       -0.0309756248        2.1265849490
  O         9.2314191775        0.0303099361       -2.1262579905
  O        10.7287199838       -1.2187206869       -0.0084025221
  O        10.7294897657        1.2175527725        0.0081313674
  O         6.1266362601        0.0250594025        2.1792454708
  O         6.1269385329        0.0350914902       -2.1784961625
  O         7.7569211960       -1.2689072347       -0.0258050671
  O         7.7647671134        1.2769597906        0.0284115025
  O         3.0149121817       -0.0329631330        2.1227383838
  O         3.0152661731        0.0320548479       -2.1224911039
  O         4.4907311383       -1.2689457525       -0.0258735301
  O         4.4827966617        1.2770341147        0.0284639551
  O        -0.0230191625        0.0269556721        2.1050922426
  O        -0.0228510813       -0.0274230401       -2.1050676806
  O         1.5156969077       -1.2187285839       -0.0200956025
  O         1.5146905044        1.2175486084        0.0200239850
  H        18.3890106239       -0.8506542711       -2.6491212931
  H        18.3657269797        0.7747242096       -2.6652435838
  H        18.3635512306       -0.7746267991        2.6656704827
  H        18.3910902048        0.8506738675        2.6488086320
  H        19.8690741592       -2.2091651880        0.0308110232
  H        19.8693560573        2.2083303369       -0.0308515566
  H        15.1689361321       -0.8504222634       -2.6458228673
  H        15.1824981753        0.7742765332       -2.6623907360
  H        15.1853889249       -0.7741782522        2.6630900196
  H        15.1668671004        0.8504664933        2.6454058100
  H        16.8135303994       -2.2146950470        0.0328324364
  H        16.8135134136        2.2145177305       -0.0328329218
  H        12.0018769663       -0.8427341050       -2.6228813711
  H        12.0486064774        0.7769765592       -2.6508590270
  H        12.0580927441       -0.7785843168        2.6521960506
  H        11.9926093872        0.8404062337        2.6218375700
  H        13.7585129553       -2.2091356662        0.0318865426
  H        13.7582591347        2.2083591863       -0.0315350010
  H         8.9895573491       -0.7714660519       -2.6577469248
  H         9.0252510944        0.8522205238       -2.6417967005
  H         9.0368889222       -0.8554630344        2.6425970994
  H         8.9769438714        0.7675533132        2.6567717630
  H        10.6972057806       -2.2057100723       -0.0002278509
  H        10.6986775506        2.2045538626        0.0008079233
  H         6.1072261898       -0.7779118891       -2.7452486407
  H         6.1078471472        0.8485204065       -2.7447835091
  H         6.1073429478       -0.7785694507        2.7592697893
  H         6.1069512792        0.8477761813        2.7318313055
  H         7.7322620330       -2.2543457227       -0.0306394576
  H         7.7509241819        2.2627197587        0.0317260561
  H         3.2171790226       -0.7729931712       -2.6649021420
  H         3.1877674979        0.8530074237       -2.6510737576
  H         3.1779243086       -0.8559515918        2.6513514039
  H         3.2272940312        0.7695981006        2.6646229332
  H         4.5145821375       -2.2544088629       -0.0305028831
  H         4.4958751867        2.2627985060        0.0315952735
  H         0.1847110311       -0.8411213006       -2.6329049327
  H         0.1219455581        0.7800159074       -2.6626773107
  H         0.1142198290       -0.7812702182        2.6634857117
  H         0.1917862485        0.8391915592        2.6322825433
  H         1.5463737988       -2.2057537453       -0.0097054107
  H         1.5446689656        2.2045743761        0.0102246486
