 DBCSR| Multiplication driver                                               BLAS
 DBCSR| Multrec recursion limit                                              512
 DBCSR| Multiplication stack size                                           1000
 DBCSR| Maximum elements for images                                    UNLIMITED
 DBCSR| Multiplicative factor virtual images                                   1
 DBCSR| Multiplication size stacks                                             3
 DBCSR| Number of 3D layers                                               SINGLE
 DBCSR| Use MPI memory allocation                                              T
 DBCSR| Use RMA algorithm                                                      F
 DBCSR| Use Communication thread                                               T
 DBCSR| Communication thread load                                             87


  **** **** ******  **  PROGRAM STARTED AT               2019-09-11 21:10:24.934
 ***** ** ***  *** **   PROGRAM STARTED ON        cpn-u22-34.cbls.ccr.buffalo.ed
 **    ****   ******    PROGRAM STARTED BY                              pavankum
 ***** **    ** ** **   PROGRAM PROCESS ID                                 23602
  **** **  *******  **  PROGRAM STARTED IN /projects/academic/mdupuis2/pavan/VAB
                                           _calculation/results_for_paper/3.1D_F
                                           e_7units/HF/neutral

 CP2K| version string:                                          CP2K version 5.1
 CP2K| source code revision number:                                    svn:18091
 CP2K| cp2kflags: libint fftw3 libxc parallel mpi3 scalapack has_no_shared_glibc
 CP2K|             max_contr=4
 CP2K| is freely available from                            https://www.cp2k.org/
 CP2K| Program compiled at                          Wed Mar 21 12:31:25 EDT 2018
 CP2K| Program compiled on                       srv-k07-14.cbls.ccr.buffalo.edu
 CP2K| Program compiled for                                                local
 CP2K| Data directory path    /projects/academic/mdupuis2/pavan/cp2k/cp2k-5.1/da
 CP2K| Input file name                                                 input.inp

 GLOBAL| Force Environment number                                              1
 GLOBAL| Basis set file name            /projects/academic/mdupuis2/pavan/BASIS_
 GLOBAL| Potential file name            /projects/academic/mdupuis2/pavan/POTENT
 GLOBAL| MM Potential file name                                     MM_POTENTIAL
 GLOBAL| Coordinate file name                                      elong_geo.xyz
 GLOBAL| Method name                                                        CP2K
 GLOBAL| Project name                                                      p_fe_
 GLOBAL| Preferred FFT library                                             FFTW3
 GLOBAL| Preferred diagonalization lib.                                       SL
 GLOBAL| Run type                                                        GEO_OPT
 GLOBAL| All-to-all communication in single precision                          F
 GLOBAL| FFTs using library dependent lengths                                  T
 GLOBAL| Global print level                                               MEDIUM
 GLOBAL| Total number of message passing processes                           256
 GLOBAL| Number of threads for this process                                    1
 GLOBAL| This output is from process                                           0
 GLOBAL| CPU model name :  Intel(R) Xeon(R) Gold 6130 CPU @ 2.10GHz

 MEMORY| system memory details [Kb]
 MEMORY|                        rank 0           min           max       average
 MEMORY| MemTotal            196268364     196268364     196268364     196268364
 MEMORY| MemFree             181569560     112499212     181569560     163376122
 MEMORY| Buffers                 31820         31820        497216        378518
 MEMORY| Cached                8449572       8449572      76667952      25786408
 MEMORY| Slab                   910112        666236        910112        770307
 MEMORY| SReclaimable           554592        314156        555684        416526
 MEMORY| MemLikelyFree       190605544     189536876     190659828     189957575


 *** Fundamental physical constants (SI units) ***

 *** Literature: B. J. Mohr and B. N. Taylor,
 ***             CODATA recommended values of the fundamental physical
 ***             constants: 2006, Web Version 5.1
 ***             http://physics.nist.gov/constants

 Speed of light in vacuum [m/s]                             2.99792458000000E+08
 Magnetic constant or permeability of vacuum [N/A**2]       1.25663706143592E-06
 Electric constant or permittivity of vacuum [F/m]          8.85418781762039E-12
 Planck constant (h) [J*s]                                  6.62606896000000E-34
 Planck constant (h-bar) [J*s]                              1.05457162825177E-34
 Elementary charge [C]                                      1.60217648700000E-19
 Electron mass [kg]                                         9.10938215000000E-31
 Electron g factor [ ]                                     -2.00231930436220E+00
 Proton mass [kg]                                           1.67262163700000E-27
 Fine-structure constant                                    7.29735253760000E-03
 Rydberg constant [1/m]                                     1.09737315685270E+07
 Avogadro constant [1/mol]                                  6.02214179000000E+23
 Boltzmann constant [J/K]                                   1.38065040000000E-23
 Atomic mass unit [kg]                                      1.66053878200000E-27
 Bohr radius [m]                                            5.29177208590000E-11

 *** Conversion factors ***

 [u] -> [a.u.]                                              1.82288848426455E+03
 [Angstrom] -> [Bohr] = [a.u.]                              1.88972613288564E+00
 [a.u.] = [Bohr] -> [Angstrom]                              5.29177208590000E-01
 [a.u.] -> [s]                                              2.41888432650478E-17
 [a.u.] -> [fs]                                             2.41888432650478E-02
 [a.u.] -> [J]                                              4.35974393937059E-18
 [a.u.] -> [N]                                              8.23872205491840E-08
 [a.u.] -> [K]                                              3.15774647902944E+05
 [a.u.] -> [kJ/mol]                                         2.62549961709828E+03
 [a.u.] -> [kcal/mol]                                       6.27509468713739E+02
 [a.u.] -> [Pa]                                             2.94210107994716E+13
 [a.u.] -> [bar]                                            2.94210107994716E+08
 [a.u.] -> [atm]                                            2.90362800883016E+08
 [a.u.] -> [eV]                                             2.72113838565563E+01
 [a.u.] -> [Hz]                                             6.57968392072181E+15
 [a.u.] -> [1/cm] (wave numbers)                            2.19474631370540E+05
 [a.u./Bohr**2] -> [1/cm]                                   5.14048714338585E+03
 

 CELL_TOP| Volume [angstrom^3]:                                        26196.625
 CELL_TOP| Vector a [angstrom    21.385     0.000     0.000    |a| =      21.385
 CELL_TOP| Vector b [angstrom     0.000    35.000     0.000    |b| =      35.000
 CELL_TOP| Vector c [angstrom     0.000     0.000    35.000    |c| =      35.000
 CELL_TOP| Angle (b,c), alpha [degree]:                                   90.000
 CELL_TOP| Angle (a,c), beta  [degree]:                                   90.000
 CELL_TOP| Angle (a,b), gamma [degree]:                                   90.000
 CELL_TOP| Numerically orthorhombic:                                         YES

 CELL| Volume [angstrom^3]:                                            26196.625
 CELL| Vector a [angstrom]:      21.385     0.000     0.000    |a| =      21.385
 CELL| Vector b [angstrom]:       0.000    35.000     0.000    |b| =      35.000
 CELL| Vector c [angstrom]:       0.000     0.000    35.000    |c| =      35.000
 CELL| Angle (b,c), alpha [degree]:                                       90.000
 CELL| Angle (a,c), beta  [degree]:                                       90.000
 CELL| Angle (a,b), gamma [degree]:                                       90.000
 CELL| Numerically orthorhombic:                                             YES

 CELL_REF| Volume [angstrom^3]:                                        26196.625
 CELL_REF| Vector a [angstrom    21.385     0.000     0.000    |a| =      21.385
 CELL_REF| Vector b [angstrom     0.000    35.000     0.000    |b| =      35.000
 CELL_REF| Vector c [angstrom     0.000     0.000    35.000    |c| =      35.000
 CELL_REF| Angle (b,c), alpha [degree]:                                   90.000
 CELL_REF| Angle (a,c), beta  [degree]:                                   90.000
 CELL_REF| Angle (a,b), gamma [degree]:                                   90.000
 CELL_REF| Numerically orthorhombic:                                         YES

 *******************************************************************************
 *******************************************************************************
 **                                                                           **
 **     #####                         ##              ##                      **
 **    ##   ##            ##          ##              ##                      **
 **   ##     ##                       ##            ######                    **
 **   ##     ##  ##   ##  ##   #####  ##  ##   ####   ##    #####    #####    **
 **   ##     ##  ##   ##  ##  ##      ## ##   ##      ##   ##   ##  ##   ##   **
 **   ##  ## ##  ##   ##  ##  ##      ####     ###    ##   ######   ######    **
 **    ##  ###   ##   ##  ##  ##      ## ##      ##   ##   ##       ##        **
 **     #######   #####   ##   #####  ##  ##  ####    ##    #####   ##        **
 **           ##                                                    ##        **
 **                                                                           **
 **                                                ... make the atoms dance   **
 **                                                                           **
 **            Copyright (C) by CP2K developers group (2000 - 2017)           **
 **                                                                           **
 *******************************************************************************

 DFT| Spin unrestricted (spin-polarized) Kohn-Sham calculation               UKS
 DFT| Multiplicity                                                            36
 DFT| Number of spin states                                                    2
 DFT| Charge                                                                   7
 DFT| Self-interaction correction (SIC)                                       NO
 DFT| Cutoffs: density                                              1.000000E-10
 DFT|          gradient                                             1.000000E-10
 DFT|          tau                                                  1.000000E-10
 DFT|          cutoff_smoothing_range                               0.000000E+00
 DFT| XC density smoothing                                                  NONE
 DFT| XC derivatives                                                          PW
 FUNCTIONAL| NO EXCHANGE-CORRELATION FUNCTIONAL USED.

 QS| Method:                                                                 GPW
 QS| Density plane wave grid type                        NON-SPHERICAL FULLSPACE
 QS| Number of grid levels:                                                    5
 QS| Density cutoff [a.u.]:                                                250.0
 QS| Multi grid cutoff [a.u.]: 1) grid level                               250.0
 QS|                           2) grid level                                83.3
 QS|                           3) grid level                                27.8
 QS|                           4) grid level                                 9.3
 QS|                           5) grid level                                 3.1
 QS| Grid level progression factor:                                          3.0
 QS| Relative density cutoff [a.u.]:                                        30.0
 QS| Consistent realspace mapping and integration 
 QS| Interaction thresholds: eps_pgf_orb:                                1.0E-10
 QS|                         eps_filter_matrix:                          0.0E+00
 QS|                         eps_core_charge:                            1.0E-14
 QS|                         eps_rho_gspace:                             1.0E-12
 QS|                         eps_rho_rspace:                             1.0E-12
 QS|                         eps_gvg_rspace:                             1.0E-06
 QS|                         eps_ppl:                                    1.0E-02
 QS|                         eps_ppnl:                                   1.0E-08


 ATOMIC KIND INFORMATION

  1. Atomic kind: Fe_three                              Number of atoms:       7

     Orbital Basis Set                                                   mod-DZV

       Number of orbital shell sets:                                           1
       Number of orbital shells:                                               7
       Number of primitive Cartesian functions:                                6
       Number of Cartesian basis functions:                                   21
       Number of spherical basis functions:                                   19
       Norm type:                                                              2

       Normalised Cartesian orbitals:

                        Set   Shell   Orbital            Exponent    Coefficient

                          1       1    2s                8.424366      -0.545589
                                                         4.825220      -0.832336
                                                         2.198939       0.958990
                                                         0.891661       0.416271
                                                         0.316231       0.012631
                                                         0.103474      -0.013505

                          1       2    3s                8.424366      -0.106056
                                                         4.825220      -0.104587
                                                         2.198939       0.052318
                                                         0.891661      -0.169042
                                                         0.316231       0.061854
                                                         0.103474       0.122891

                          1       3    4s                8.424366      -0.333477
                                                         4.825220      -0.289267
                                                         2.198939      -0.125861
                                                         0.891661      -1.004000
                                                         0.316231       0.780774
                                                         0.103474      -0.187846

                          1       4    3px               8.424366      -1.658234
                                                         4.825220       1.618912
                                                         2.198939       1.969078
                                                         0.891661       0.523780
                                                         0.316231       0.024574
                                                         0.103474      -0.000798
                          1       4    3py               8.424366      -1.658234
                                                         4.825220       1.618912
                                                         2.198939       1.969078
                                                         0.891661       0.523780
                                                         0.316231       0.024574
                                                         0.103474      -0.000798
                          1       4    3pz               8.424366      -1.658234
                                                         4.825220       1.618912
                                                         2.198939       1.969078
                                                         0.891661       0.523780
                                                         0.316231       0.024574
                                                         0.103474      -0.000798

                          1       5    4px               8.424366      -0.105249
                                                         4.825220      -0.126123
                                                         2.198939      -0.349657
                                                         0.891661      -0.133470
                                                         0.316231       0.170554
                                                         0.103474       0.054381
                          1       5    4py               8.424366      -0.105249
                                                         4.825220      -0.126123
                                                         2.198939      -0.349657
                                                         0.891661      -0.133470
                                                         0.316231       0.170554
                                                         0.103474       0.054381
                          1       5    4pz               8.424366      -0.105249
                                                         4.825220      -0.126123
                                                         2.198939      -0.349657
                                                         0.891661      -0.133470
                                                         0.316231       0.170554
                                                         0.103474       0.054381

                          1       6    4dx2              8.424366       7.918298
                                                         4.825220       5.112663
                                                         2.198939       2.118663
                                                         0.891661       0.465004
                                                         0.316231       0.065856
                                                         0.103474       0.002769
                          1       6    4dxy              8.424366      13.714895
                                                         4.825220       8.855393
                                                         2.198939       3.669632
                                                         0.891661       0.805411
                                                         0.316231       0.114066
                                                         0.103474       0.004796
                          1       6    4dxz              8.424366      13.714895
                                                         4.825220       8.855393
                                                         2.198939       3.669632
                                                         0.891661       0.805411
                                                         0.316231       0.114066
                                                         0.103474       0.004796
                          1       6    4dy2              8.424366       7.918298
                                                         4.825220       5.112663
                                                         2.198939       2.118663
                                                         0.891661       0.465004
                                                         0.316231       0.065856
                                                         0.103474       0.002769
                          1       6    4dyz              8.424366      13.714895
                                                         4.825220       8.855393
                                                         2.198939       3.669632
                                                         0.891661       0.805411
                                                         0.316231       0.114066
                                                         0.103474       0.004796
                          1       6    4dz2              8.424366       7.918298
                                                         4.825220       5.112663
                                                         2.198939       2.118663
                                                         0.891661       0.465004
                                                         0.316231       0.065856
                                                         0.103474       0.002769

                          1       7    5dx2              8.424366      -4.223614
                                                         4.825220      -1.970584
                                                         2.198939      -1.543490
                                                         0.891661      -0.041381
                                                         0.316231       0.082821
                                                         0.103474       0.021964
                          1       7    5dxy              8.424366      -7.315513
                                                         4.825220      -3.413151
                                                         2.198939      -2.673404
                                                         0.891661      -0.071673
                                                         0.316231       0.143450
                                                         0.103474       0.038042
                          1       7    5dxz              8.424366      -7.315513
                                                         4.825220      -3.413151
                                                         2.198939      -2.673404
                                                         0.891661      -0.071673
                                                         0.316231       0.143450
                                                         0.103474       0.038042
                          1       7    5dy2              8.424366      -4.223614
                                                         4.825220      -1.970584
                                                         2.198939      -1.543490
                                                         0.891661      -0.041381
                                                         0.316231       0.082821
                                                         0.103474       0.021964
                          1       7    5dyz              8.424366      -7.315513
                                                         4.825220      -3.413151
                                                         2.198939      -2.673404
                                                         0.891661      -0.071673
                                                         0.316231       0.143450
                                                         0.103474       0.038042
                          1       7    5dz2              8.424366      -4.223614
                                                         4.825220      -1.970584
                                                         2.198939      -1.543490
                                                         0.891661      -0.041381
                                                         0.316231       0.082821
                                                         0.103474       0.021964

     GTH Potential information for                                  GTH-BLYP-q16

       Description:                       Goedecker-Teter-Hutter pseudopotential
                                           Goedecker et al., PRB 54, 1703 (1996)
                                          Hartwigsen et al., PRB 58, 3641 (1998)
                                                      Krack, TCA 114, 145 (2005)

       Gaussian exponent of the core charge distribution:               3.858025
       Electronic configuration (s p d ...):                           4   6   6

       Parameters of the local part of the GTH pseudopotential:

                          rloc        C1          C2          C3          C4
                        0.360000    7.011025   -0.222747

       Parameters of the non-local part of the GTH pseudopotential:

                   l      r(l)      h(i,j,l)

                   0    0.276205    0.611496    7.992357
                                    7.992357  -10.318089
                   1    0.247130   -8.710556    8.684169
                                    8.684169  -10.275248
                   2    0.223534  -12.411504

  2. Atomic kind: O                                     Number of atoms:      28

     Orbital Basis Set                                                   mod-DZV

       Number of orbital shell sets:                                           1
       Number of orbital shells:                                               4
       Number of primitive Cartesian functions:                                5
       Number of Cartesian basis functions:                                    8
       Number of spherical basis functions:                                    8
       Norm type:                                                              2

       Normalised Cartesian orbitals:

                        Set   Shell   Orbital            Exponent    Coefficient

                          1       1    2s               10.389228       0.396646
                                                         3.849621       0.208811
                                                         1.388401      -0.301641
                                                         0.496955      -0.274061
                                                         0.162492      -0.033677

                          1       2    3s               10.389228       0.303673
                                                         3.849621       0.240943
                                                         1.388401      -0.313066
                                                         0.496955      -0.043055
                                                         0.162492       0.213991

                          1       3    3px              10.389228      -1.530415
                                                         3.849621      -1.371928
                                                         1.388401      -0.761951
                                                         0.496955      -0.253695
                                                         0.162492      -0.035541
                          1       3    3py              10.389228      -1.530415
                                                         3.849621      -1.371928
                                                         1.388401      -0.761951
                                                         0.496955      -0.253695
                                                         0.162492      -0.035541
                          1       3    3pz              10.389228      -1.530415
                                                         3.849621      -1.371928
                                                         1.388401      -0.761951
                                                         0.496955      -0.253695
                                                         0.162492      -0.035541

                          1       4    4px              10.389228      -0.565392
                                                         3.849621      -0.038231
                                                         1.388401      -0.382373
                                                         0.496955       0.179070
                                                         0.162492       0.122714
                          1       4    4py              10.389228      -0.565392
                                                         3.849621      -0.038231
                                                         1.388401      -0.382373
                                                         0.496955       0.179070
                                                         0.162492       0.122714
                          1       4    4pz              10.389228      -0.565392
                                                         3.849621      -0.038231
                                                         1.388401      -0.382373
                                                         0.496955       0.179070
                                                         0.162492       0.122714

     GTH Potential information for                                   GTH-BLYP-q6

       Description:                       Goedecker-Teter-Hutter pseudopotential
                                           Goedecker et al., PRB 54, 1703 (1996)
                                          Hartwigsen et al., PRB 58, 3641 (1998)
                                                      Krack, TCA 114, 145 (2005)

       Gaussian exponent of the core charge distribution:               8.438331
       Electronic configuration (s p d ...):                               2   4

       Parameters of the local part of the GTH pseudopotential:

                          rloc        C1          C2          C3          C4
                        0.243420  -16.991892    2.566142

       Parameters of the non-local part of the GTH pseudopotential:

                   l      r(l)      h(i,j,l)

                   0    0.220831   18.388851
                   1    0.217201

  3. Atomic kind: H                                     Number of atoms:      42

     Orbital Basis Set                                                   mod-DZV

       Number of orbital shell sets:                                           1
       Number of orbital shells:                                               2
       Number of primitive Cartesian functions:                                5
       Number of Cartesian basis functions:                                    2
       Number of spherical basis functions:                                    2
       Norm type:                                                              2

       Normalised Cartesian orbitals:

                        Set   Shell   Orbital            Exponent    Coefficient

                          1       1    2s               10.068468      -0.133023
                                                         2.680223      -0.177618
                                                         0.791502      -0.258419
                                                         0.239116      -0.107525
                                                         0.082193      -0.014019

                          1       2    3s               10.068468       0.344673
                                                         2.680223       1.819821
                                                         0.791502      -0.999069
                                                         0.239116       0.017430
                                                         0.082193       0.082660

     GTH Potential information for                                   GTH-BLYP-q1

       Description:                       Goedecker-Teter-Hutter pseudopotential
                                           Goedecker et al., PRB 54, 1703 (1996)
                                          Hartwigsen et al., PRB 58, 3641 (1998)
                                                      Krack, TCA 114, 145 (2005)

       Gaussian exponent of the core charge distribution:              12.500000
       Electronic configuration (s p d ...):                                   1

       Parameters of the local part of the GTH pseudopotential:

                          rloc        C1          C2          C3          C4
                        0.200000   -4.195961    0.730498


 MOLECULE KIND INFORMATION


 All atoms are their own molecule, skipping detailed information


 TOTAL NUMBERS AND MAXIMUM NUMBERS

  Total number of            - Atomic kinds:                                   3
                             - Atoms:                                         77
                             - Shell sets:                                    77
                             - Shells:                                       245
                             - Primitive Cartesian functions:                392
                             - Cartesian basis functions:                    455
                             - Spherical basis functions:                    441

  Maximum angular momentum of- Orbital basis functions:                        2
                             - Local part of the GTH pseudopotential:          2
                             - Non-local part of the GTH pseudopotential:      3


 MODULE QUICKSTEP:  ATOMIC COORDINATES IN angstrom

  Atom  Kind  Element       X           Y           Z          Z(eff)       Mass

       1     1 Fe  26   18.340693    0.000000    0.000001     16.00      55.8450
       2     1 Fe  26   15.287231    0.000000    0.000001     16.00      55.8450
       3     1 Fe  26   12.231430    0.000000    0.000003     16.00      55.8450
       4     1 Fe  26    9.156119   -0.000000    0.000005     16.00      55.8450
       5     1 Fe  26    6.124077   -0.000000    0.000004     16.00      55.8450
       6     1 Fe  26    3.089503   -0.000000    0.000002     16.00      55.8450
       7     1 Fe  26    0.012253   -0.000000    0.000002     16.00      55.8450
       8     2 O    8   18.338004    0.000002    2.131690      6.00      15.9994
       9     2 O    8   18.338004   -0.000001   -2.131688      6.00      15.9994
      10     2 O    8   19.856972   -1.262309    0.000000      6.00      15.9994
      11     2 O    8   19.856973    1.262309    0.000002      6.00      15.9994
      12     2 O    8   15.275885    0.000005    2.132348      6.00      15.9994
      13     2 O    8   15.275884   -0.000005   -2.132346      6.00      15.9994
      14     2 O    8   16.813333   -1.262676    0.000008      6.00      15.9994
      15     2 O    8   16.813333    1.262676   -0.000007      6.00      15.9994
      16     2 O    8   12.229699   -0.000017    2.143469      6.00      15.9994
      17     2 O    8   12.229697    0.000018   -2.143462      6.00      15.9994
      18     2 O    8   13.770392   -1.262403    0.000002      6.00      15.9994
      19     2 O    8   13.770393    1.262403    0.000002      6.00      15.9994
      20     2 O    8    9.213695   -0.000007    2.167274      6.00      15.9994
      21     2 O    8    9.213694    0.000007   -2.167264      6.00      15.9994
      22     2 O    8   10.738065   -1.258358   -0.000009      6.00      15.9994
      23     2 O    8   10.738064    1.258358    0.000017      6.00      15.9994
      24     2 O    8    6.131929   -0.000001    2.283968      6.00      15.9994
      25     2 O    8    6.131931    0.000001   -2.283961      6.00      15.9994
      26     2 O    8    7.776123   -1.324617    0.000001      6.00      15.9994
      27     2 O    8    7.776123    1.324616    0.000008      6.00      15.9994
      28     2 O    8    3.025306    0.000003    2.167475      6.00      15.9994
      29     2 O    8    3.025307   -0.000004   -2.167472      6.00      15.9994
      30     2 O    8    4.470694   -1.323475    0.000003      6.00      15.9994
      31     2 O    8    4.470694    1.323474    0.000001      6.00      15.9994
      32     2 O    8    0.001040    0.000003    2.142292      6.00      15.9994
      33     2 O    8    0.001040   -0.000004   -2.142289      6.00      15.9994
      34     2 O    8    1.506268   -1.257845    0.000003      6.00      15.9994
      35     2 O    8    1.506269    1.257844   -0.000000      6.00      15.9994
      36     3 H    1   18.388376   -0.796974   -2.673082      1.00       1.0079
      37     3 H    1   18.388337    0.796973   -2.673084      1.00       1.0079
      38     3 H    1   18.388343   -0.796972    2.673085      1.00       1.0079
      39     3 H    1   18.388369    0.796975    2.673084      1.00       1.0079
      40     3 H    1   19.870765   -2.222378    0.000003      1.00       1.0079
      41     3 H    1   19.870766    2.222378   -0.000000      1.00       1.0079
      42     3 H    1   15.195744   -0.796739   -2.670660      1.00       1.0079
      43     3 H    1   15.195772    0.796728   -2.670665      1.00       1.0079
      44     3 H    1   15.195777   -0.796729    2.670667      1.00       1.0079
      45     3 H    1   15.195742    0.796739    2.670662      1.00       1.0079
      46     3 H    1   16.813034   -2.222992    0.000003      1.00       1.0079
      47     3 H    1   16.813034    2.222992   -0.000002      1.00       1.0079
      48     3 H    1   12.038308   -0.794997   -2.655897      1.00       1.0079
      49     3 H    1   12.038403    0.795062   -2.655889      1.00       1.0079
      50     3 H    1   12.038405   -0.795061    2.655896      1.00       1.0079
      51     3 H    1   12.038312    0.794998    2.655904      1.00       1.0079
      52     3 H    1   13.755866   -2.222468   -0.000006      1.00       1.0079
      53     3 H    1   13.755867    2.222469    0.000009      1.00       1.0079
      54     3 H    1    8.981306   -0.796753   -2.658316      1.00       1.0079
      55     3 H    1    8.981317    0.796772   -2.658313      1.00       1.0079
      56     3 H    1    8.981319   -0.796773    2.658323      1.00       1.0079
      57     3 H    1    8.981309    0.796753    2.658327      1.00       1.0079
      58     3 H    1   10.695931   -2.216857   -0.000014      1.00       1.0079
      59     3 H    1   10.695930    2.216857    0.000022      1.00       1.0079
      60     3 H    1    6.107721   -0.799145   -2.821150      1.00       1.0079
      61     3 H    1    6.107716    0.799148   -2.821147      1.00       1.0079
      62     3 H    1    6.107717   -0.799148    2.821155      1.00       1.0079
      63     3 H    1    6.107720    0.799145    2.821156      1.00       1.0079
      64     3 H    1    7.740323   -2.280645    0.000001      1.00       1.0079
      65     3 H    1    7.740323    2.280644    0.000009      1.00       1.0079
      66     3 H    1    3.224121   -0.797926   -2.670829      1.00       1.0079
      67     3 H    1    3.224115    0.797916   -2.670833      1.00       1.0079
      68     3 H    1    3.224118   -0.797917    2.670835      1.00       1.0079
      69     3 H    1    3.224119    0.797925    2.670832      1.00       1.0079
      70     3 H    1    4.506492   -2.279523    0.000004      1.00       1.0079
      71     3 H    1    4.506492    2.279523   -0.000000      1.00       1.0079
      72     3 H    1    0.164146   -0.795877   -2.662778      1.00       1.0079
      73     3 H    1    0.164131    0.795869   -2.662782      1.00       1.0079
      74     3 H    1    0.164136   -0.795870    2.662785      1.00       1.0079
      75     3 H    1    0.164140    0.795876    2.662782      1.00       1.0079
      76     3 H    1    1.547762   -2.216359    0.000006      1.00       1.0079
      77     3 H    1    1.547762    2.216358   -0.000002      1.00       1.0079




 SCF PARAMETERS         Density guess:                                    ATOMIC
                        --------------------------------------------------------
                        max_scf:                                            1000
                        max_scf_history:                                       0
                        max_diis:                                              4
                        --------------------------------------------------------
                        eps_scf:                                        1.00E-06
                        eps_scf_history:                                0.00E+00
                        eps_diis:                                       1.00E-01
                        eps_eigval:                                     1.00E-05
                        --------------------------------------------------------
                        level_shift [a.u.]:                                 0.00
                        --------------------------------------------------------
                        Outer loop SCF in use 
                        No variables optimised in outer loop
                        eps_scf                                         1.00E-06
                        max_scf                                              500
                        No outer loop optimization
                        step_size                                       5.00E-01

 PW_GRID| Information for grid number                                          1
 PW_GRID| Grid distributed over                                   256 processors
 PW_GRID| Real space group dimensions                                   256    1
 PW_GRID| the grid is blocked:                                                NO
 PW_GRID| Cutoff [a.u.]                                                    250.0
 PW_GRID| spherical cutoff:                                                   NO
 PW_GRID|   Bounds   1           -144     143                Points:         288
 PW_GRID|   Bounds   2           -240     239                Points:         480
 PW_GRID|   Bounds   3           -240     239                Points:         480
 PW_GRID| Volume element (a.u.^3)  0.2664E-02     Volume (a.u.^3)    176783.5904
 PW_GRID| Grid span                                                    FULLSPACE
 PW_GRID|   Distribution                         Average         Max         Min
 PW_GRID|   G-Vectors                           259200.0      259200      259200
 PW_GRID|   G-Rays                                 900.0         900         900
 PW_GRID|   Real Space Points                   259200.0      460800      230400

 PW_GRID| Information for grid number                                          2
 PW_GRID| Grid distributed over                                   256 processors
 PW_GRID| Real space group dimensions                                    16   16
 PW_GRID| the grid is blocked:                                                NO
 PW_GRID| Cutoff [a.u.]                                                     83.3
 PW_GRID| spherical cutoff:                                                   NO
 PW_GRID|   Bounds   1            -84      83                Points:         168
 PW_GRID|   Bounds   2           -137     137                Points:         275
 PW_GRID|   Bounds   3           -137     137                Points:         275
 PW_GRID| Volume element (a.u.^3)  0.1391E-01     Volume (a.u.^3)    176783.5904
 PW_GRID| Grid span                                                    FULLSPACE
 PW_GRID|   Distribution                         Average         Max         Min
 PW_GRID|   G-Vectors                            49628.9       50400       48888
 PW_GRID|   G-Rays                                 295.4         300         291
 PW_GRID|   Real Space Points                    49628.9       54450       46750

 PW_GRID| Information for grid number                                          3
 PW_GRID| Grid distributed over                                   256 processors
 PW_GRID| Real space group dimensions                                    16   16
 PW_GRID| the grid is blocked:                                                NO
 PW_GRID| Cutoff [a.u.]                                                     27.8
 PW_GRID| spherical cutoff:                                                   NO
 PW_GRID|   Bounds   1            -48      47                Points:          96
 PW_GRID|   Bounds   2            -80      79                Points:         160
 PW_GRID|   Bounds   3            -80      79                Points:         160
 PW_GRID| Volume element (a.u.^3)  0.7193E-01     Volume (a.u.^3)    176783.5904
 PW_GRID| Grid span                                                    FULLSPACE
 PW_GRID|   Distribution                         Average         Max         Min
 PW_GRID|   G-Vectors                             9600.0        9696        9504
 PW_GRID|   G-Rays                                 100.0         101          99
 PW_GRID|   Real Space Points                     9600.0        9600        9600

 PW_GRID| Information for grid number                                          4
 PW_GRID| Grid distributed over                                   256 processors
 PW_GRID| Real space group dimensions                                    16   16
 PW_GRID| the grid is blocked:                                                NO
 PW_GRID| Cutoff [a.u.]                                                      9.3
 PW_GRID| spherical cutoff:                                                   NO
 PW_GRID|   Bounds   1            -27      27                Points:          55
 PW_GRID|   Bounds   2            -48      47                Points:          96
 PW_GRID|   Bounds   3            -48      47                Points:          96
 PW_GRID| Volume element (a.u.^3)  0.3488         Volume (a.u.^3)    176783.5904
 PW_GRID| Grid span                                                    FULLSPACE
 PW_GRID|   Distribution                         Average         Max         Min
 PW_GRID|   G-Vectors                             1980.0        2035        1925
 PW_GRID|   G-Rays                                  36.0          37          35
 PW_GRID|   Real Space Points                     1980.0        2304        1728

 PW_GRID| Information for grid number                                          5
 PW_GRID| Grid distributed over                                   256 processors
 PW_GRID| Real space group dimensions                                    16   16
 PW_GRID| the grid is blocked:                                                NO
 PW_GRID| Cutoff [a.u.]                                                      3.1
 PW_GRID| spherical cutoff:                                                   NO
 PW_GRID|   Bounds   1            -16      15                Points:          32
 PW_GRID|   Bounds   2            -27      26                Points:          54
 PW_GRID|   Bounds   3            -27      26                Points:          54
 PW_GRID| Volume element (a.u.^3)   1.895         Volume (a.u.^3)    176783.5904
 PW_GRID| Grid span                                                    FULLSPACE
 PW_GRID|   Distribution                         Average         Max         Min
 PW_GRID|   G-Vectors                              364.5         384         320
 PW_GRID|   G-Rays                                  11.4          12          10
 PW_GRID|   Real Space Points                      364.5         432         324

 POISSON| Solver                                                        PERIODIC
 POISSON| Periodicity                                                        XYZ

 RS_GRID| Information for grid number                                          1
 RS_GRID|   Bounds   1           -144     143                Points:         288
 RS_GRID|   Bounds   2           -240     239                Points:         480
 RS_GRID|   Bounds   3           -240     239                Points:         480
 RS_GRID| Real space distribution over                                  4 groups
 RS_GRID| Real space distribution along direction                              1
 RS_GRID| Border size                                                         26
 RS_GRID| Real space distribution over                                  8 groups
 RS_GRID| Real space distribution along direction                              2
 RS_GRID| Border size                                                         26
 RS_GRID| Real space distribution over                                  8 groups
 RS_GRID| Real space distribution along direction                              3
 RS_GRID| Border size                                                         26
 RS_GRID|   Distribution                         Average         Max         Min
 RS_GRID|   Planes                                 124.0         124         124
 RS_GRID|   Distribution                         Average         Max         Min
 RS_GRID|   Planes                                 112.0         112         112
 RS_GRID|   Distribution                         Average         Max         Min
 RS_GRID|   Planes                                 112.0         112         112

 RS_GRID| Information for grid number                                          2
 RS_GRID|   Bounds   1            -84      83                Points:         168
 RS_GRID|   Bounds   2           -137     137                Points:         275
 RS_GRID|   Bounds   3           -137     137                Points:         275
 RS_GRID| Real space distribution over                                  4 groups
 RS_GRID| Real space distribution along direction                              1
 RS_GRID| Border size                                                         27
 RS_GRID| Real space distribution over                                  8 groups
 RS_GRID| Real space distribution along direction                              2
 RS_GRID| Border size                                                         27
 RS_GRID| Real space distribution over                                  8 groups
 RS_GRID| Real space distribution along direction                              3
 RS_GRID| Border size                                                         27
 RS_GRID|   Distribution                         Average         Max         Min
 RS_GRID|   Planes                                  96.0          96          96
 RS_GRID|   Distribution                         Average         Max         Min
 RS_GRID|   Planes                                  88.4          89          88
 RS_GRID|   Distribution                         Average         Max         Min
 RS_GRID|   Planes                                  88.4          89          88

 RS_GRID| Information for grid number                                          3
 RS_GRID|   Bounds   1            -48      47                Points:          96
 RS_GRID|   Bounds   2            -80      79                Points:         160
 RS_GRID|   Bounds   3            -80      79                Points:         160
 RS_GRID| Real space fully replicated
 RS_GRID| Group size                                                           1

 RS_GRID| Information for grid number                                          4
 RS_GRID|   Bounds   1            -27      27                Points:          55
 RS_GRID|   Bounds   2            -48      47                Points:          96
 RS_GRID|   Bounds   3            -48      47                Points:          96
 RS_GRID| Real space fully replicated
 RS_GRID| Group size                                                           1

 RS_GRID| Information for grid number                                          5
 RS_GRID|   Bounds   1            -16      15                Points:          32
 RS_GRID|   Bounds   2            -27      26                Points:          54
 RS_GRID|   Bounds   3            -27      26                Points:          54
 RS_GRID| Real space fully replicated
 RS_GRID| Group size                                                           1

 DISTRIBUTION OF THE PARTICLES (ROWS)
              Process row      Number of particles         Number of matrix rows
                        0                        5                            -1
                        1                        5                            -1
                        2                        5                            -1
                        3                        5                            -1
                        4                        5                            -1
                        5                        5                            -1
                        6                        5                            -1
                        7                        2                            -1
                        8                        5                            -1
                        9                        5                            -1
                       10                        5                            -1
                       11                        5                            -1
                       12                        5                            -1
                       13                        5                            -1
                       14                        5                            -1
                       15                        5                            -1
                      Sum                       77                            -1

 DISTRIBUTION OF THE PARTICLES (COLUMNS)
              Process col      Number of particles      Number of matrix columns
                        0                        5                            -1
                        1                        5                            -1
                        2                        5                            -1
                        3                        5                            -1
                        4                        5                            -1
                        5                        5                            -1
                        6                        5                            -1
                        7                        2                            -1
                        8                        5                            -1
                        9                        5                            -1
                       10                        5                            -1
                       11                        5                            -1
                       12                        5                            -1
                       13                        5                            -1
                       14                        5                            -1
                       15                        5                            -1
                      Sum                       77                            -1

  HFX_INFO| Replica ID:                                                        1
  HFX_INFO| EPS_SCHWARZ:                                                 1.0E-10
  HFX_INFO| EPS_SCHWARZ_FORCES                                           1.0E-06
  HFX_INFO| EPS_STORAGE_SCALING:                                         1.0E+00
  HFX_INFO| NBINS:                                                            64
  HFX_INFO| BLOCK_SIZE:                                                        1
  HFX_INFO| FRACTION:                                               1.0000000000
  HFX_INFO| Interaction Potential:                                     TRUNCATED
  HFX_INFO| Cutoff Radius [angstrom]:                              10.6711000000
  HFX_INFO| NUMBER_OF_SHELLS:                                               AUTO
  HFX_INFO| Number of periodic shells considered:                             -1
  HFX_INFO| Number of periodic cells considered:                              27


 *******************************************************************************
 ***                     STARTING GEOMETRY OPTIMIZATION                      ***
 ***                                   BFGS                                  ***
 *******************************************************************************

 DISTRIBUTION OF THE NEIGHBOR LISTS
              Total number of particle pairs:                               4175
              Total number of matrix elements:                            134006
              Average number of particle pairs:                               17
              Maximum number of particle pairs:                               31
              Average number of matrix element:                              524
              Maximum number of matrix elements:                            1208


 DISTRIBUTION OF THE OVERLAP MATRIX
              Number  of non-zero blocks:                                   3003
              Percentage non-zero blocks:                                 100.00
              Average number of blocks per CPU:                               12
              Maximum number of blocks per CPU:                               21
              Average number of matrix elements per CPU:                     399
              Maximum number of matrix elements per CPU:                     766

 Spin 1

 Number of electrons:                                                        175
 Number of occupied orbitals:                                                175
 Number of molecular orbitals:                                               175

 Spin 2

 Number of electrons:                                                        140
 Number of occupied orbitals:                                                140
 Number of molecular orbitals:                                               140

 Number of orbital functions:                                                441
 Number of independent orbital functions:                                    441

 Extrapolation method: initial_guess

 Atomic guess: The first density matrix is obtained in terms of atomic orbitals
               and electronic configurations assigned to each atomic kind

 Guess for atomic kind: Fe_three

 Electronic structure
    Total number of core electrons                                         10.00
    Total number of valence electrons                                      13.00
    Total number of electrons                                              23.00
    Multiplicity                                                          sextet
    Alpha Electrons
    S   [  1.00  1.00] 1.00
    P   [  3.00] 3.00
    D      5.00
    Beta Electrons
    S   [  1.00  1.00] 1.00
    P   [  3.00] 3.00
    D      0.00


 *******************************************************************************
                  Iteration          Convergence                     Energy [au]
 *******************************************************************************
                          1         2.54488                    -120.092779543541
                          2         1.44400                    -120.846604232009
                          3        0.740930E-01                -120.928956050940
                          4        0.121540E-01                -120.929243519022
                          5        0.264514E-02                -120.929251045844
                          6        0.158944E-02                -120.929251358865
                          7        0.706054E-04                -120.929251547836
                          8        0.490983E-04                -120.929251547997
                          9        0.446554E-04                -120.929251548016
                         10        0.118380E-05                -120.929251548105
                         11        0.580204E-06                -120.929251548106

 Energy components [Hartree]           Total Energy ::         -120.929251548106
                                        Band Energy ::          -39.595691766841
                                     Kinetic Energy ::           64.263240157020
                                   Potential Energy ::         -185.192491705125
                                      Virial (-V/T) ::            2.881779556285
                                        Core Energy ::         -194.205095662832
                                          XC Energy ::          -11.802486701985
                                     Coulomb Energy ::           85.078330816712
                       Total Pseudopotential Energy ::         -258.491143083165
                       Local Pseudopotential Energy ::         -235.525727671071
                    Nonlocal Pseudopotential Energy ::          -22.965415412094
                                        Confinement ::            0.228072633131

 Orbital energies  State     Spin  L     Occupation   Energy[a.u.]    Energy[eV]

                       1    alpha  0          1.000      -5.001186   -136.089195
                       1     beta  0          1.000      -4.757280   -129.452160

                       1    alpha  1          3.000      -3.674173    -99.979338
                       1     beta  1          3.000      -3.437560    -93.540776

                       1    alpha  2          5.000      -1.700405    -46.270374
                       1     beta  2          0.000      -1.484714    -40.401136


 Total Electron Density at R=0:                                         0.000193

 Guess for atomic kind: O

 Electronic structure
    Total number of core electrons                                          2.00
    Total number of valence electrons                                       6.00
    Total number of electrons                                               8.00
    Multiplicity                                                   not specified
    S   [  2.00] 2.00
    P      4.00


 *******************************************************************************
                  Iteration          Convergence                     Energy [au]
 *******************************************************************************
                          1         1.66534                     -14.841299127561
                          2         2.12570                     -14.900706768247
                          3        0.100524                     -15.657951719936
                          4        0.182255E-01                 -15.659503667848
                          5        0.461284E-02                 -15.659553193201
                          6        0.258645E-02                 -15.659555512760
                          7        0.512719E-04                 -15.659556575267
                          8        0.153607E-05                 -15.659556575708
                          9        0.770450E-06                 -15.659556575708

 Energy components [Hartree]           Total Energy ::          -15.659556575708
                                        Band Energy ::           -2.978221017336
                                     Kinetic Energy ::           11.772808526921
                                   Potential Energy ::          -27.432365102629
                                      Virial (-V/T) ::            2.330146204272
                                        Core Energy ::          -26.164446096411
                                          XC Energy ::           -3.159347279707
                                     Coulomb Energy ::           13.664236800410
                       Total Pseudopotential Energy ::          -37.971936037102
                       Local Pseudopotential Energy ::          -39.249563814793
                    Nonlocal Pseudopotential Energy ::            1.277627777691
                                        Confinement ::            0.346814137702

 Orbital energies  State     L     Occupation   Energy[a.u.]          Energy[eV]

                       1     0          2.000      -0.858880          -23.371309

                       1     1          4.000      -0.315115           -8.574724


 Total Electron Density at R=0:                                         0.000111

 Guess for atomic kind: H

 Electronic structure
    Total number of core electrons                                          0.00
    Total number of valence electrons                                       1.00
    Total number of electrons                                               1.00
    Multiplicity                                                   not specified
    S      1.00


 *******************************************************************************
                  Iteration          Convergence                     Energy [au]
 *******************************************************************************
                          1        0.250128E-02                  -0.375348162830
                          2        0.568882E-04                  -0.375350001006
                          3        0.826851E-09                  -0.375350001957

 Energy components [Hartree]           Total Energy ::           -0.375350001957
                                        Band Energy ::           -0.076411041070
                                     Kinetic Energy ::            0.771428021522
                                   Potential Energy ::           -1.146778023480
                                      Virial (-V/T) ::            1.486565164196
                                        Core Energy ::           -0.456179877518
                                          XC Energy ::           -0.314218931967
                                     Coulomb Energy ::            0.395048807528
                       Total Pseudopotential Energy ::           -1.238644281395
                       Local Pseudopotential Energy ::           -1.238644281395
                    Nonlocal Pseudopotential Energy ::            0.000000000000
                                        Confinement ::            0.110363823546

 Orbital energies  State     L     Occupation   Energy[a.u.]          Energy[eV]

                       1     0          1.000      -0.076411           -2.079250


 Total Electron Density at R=0:                                         0.425190

 Spin 1
 Re-scaling the density matrix to get the right number of electrons for spin 1
                  # Electrons              Trace(P)               Scaling factor
                          175               168.000                        1.042

 Spin 2
 Re-scaling the density matrix to get the right number of electrons for spin 2
                  # Electrons              Trace(P)               Scaling factor
                          140               133.000                        1.053


 SCF WAVEFUNCTION OPTIMIZATION

  ----------------------------------- OT ---------------------------------------
  Minimizer      : CG                  : conjugate gradient
  Preconditioner : FULL_KINETIC        : inversion of T + eS
  Precond_solver : DEFAULT
  Line search    : 2PNT                : 2 energies, one gradient
  stepsize       :    0.15000000                  energy_gap     :    0.20000000
  eps_taylor     :   0.10000E-15                  max_taylor     :             4
  ----------------------------------- OT ---------------------------------------

  Step     Update method      Time    Convergence         Total energy    Change
  ------------------------------------------------------------------------------

  HFX_MEM_INFO| Est. max. program size before HFX [MiB]:                     245
  HFX_MEM_INFO| Number of cart. primitive ERI's calculated:          75281589717
  HFX_MEM_INFO| Number of sph. ERI's calculated:                      4839759994
  HFX_MEM_INFO| Number of sph. ERI's stored in-core:                  4839759994
  HFX_MEM_INFO| Number of sph. ERI's stored on disk:                           0
  HFX_MEM_INFO| Number of sph. ERI's calculated on the fly:                    0
  HFX_MEM_INFO| Total memory consumption ERI's RAM [MiB]:                  12387
  HFX_MEM_INFO| Whereof max-vals [MiB]:                                        5
  HFX_MEM_INFO| Total compression factor ERI's RAM:                         2.98
  HFX_MEM_INFO| Total memory consumption ERI's disk [MiB]:                     0
  HFX_MEM_INFO| Total compression factor ERI's disk:                        0.00
  HFX_MEM_INFO| Size of density/Fock matrix [MiB]:                             0
  HFX_MEM_INFO| Size of buffers [MiB]:                                         1
  HFX_MEM_INFO| Number of periodic image cells considered:                    27
  HFX_MEM_INFO| Est. max. program size after HFX  [MiB]:                     298

     1 OT CG       0.15E+00   33.2     0.02983018     -1283.8255794053 -1.28E+03
     2 OT LS       0.27E+00    0.8                    -1297.2892283846
     3 OT CG       0.27E+00    1.4     0.02048138     -1300.7299155532 -1.69E+01
     4 OT LS       0.31E+00    0.9                    -1309.7514274875
     5 OT CG       0.31E+00    1.4     0.01435300     -1309.9139658025 -9.18E+00
     6 OT LS       0.29E+00    0.9                    -1314.0658978314
     7 OT CG       0.29E+00    1.4     0.01015238     -1314.0924844209 -4.18E+00
     8 OT LS       0.38E+00    0.8                    -1316.6712438406
     9 OT CG       0.38E+00    1.2     0.00871106     -1316.8179524959 -2.73E+00
    10 OT LS       0.33E+00    1.0                    -1318.5065673257
    11 OT CG       0.33E+00    1.5     0.00687596     -1318.5513664844 -1.73E+00
    12 OT LS       0.39E+00    1.2                    -1319.7920030626
    13 OT CG       0.39E+00    1.6     0.00590850     -1319.8163903217 -1.27E+00
    14 OT LS       0.33E+00    0.9                    -1320.5904094026
    15 OT CG       0.33E+00    1.5     0.00465515     -1320.6154869673 -7.99E-01
    16 OT LS       0.35E+00    0.9                    -1321.1357003610
    17 OT CG       0.35E+00    1.2     0.00380710     -1321.1365997164 -5.21E-01
    18 OT LS       0.35E+00    0.9                    -1321.4918166407
    19 OT CG       0.35E+00    1.3     0.00310613     -1321.4919046035 -3.55E-01
    20 OT LS       0.35E+00    1.0                    -1321.7272097703
    21 OT CG       0.35E+00    1.5     0.00251702     -1321.7272224410 -2.35E-01
    22 OT LS       0.35E+00    0.7                    -1321.8813587710
    23 OT CG       0.35E+00    1.4     0.00204633     -1321.8813629909 -1.54E-01
    24 OT LS       0.34E+00    0.8                    -1321.9812761348
    25 OT CG       0.34E+00    1.4     0.00165334     -1321.9813216567 -1.00E-01
    26 OT LS       0.35E+00    0.7                    -1322.0468358389
    27 OT CG       0.35E+00    1.3     0.00134899     -1322.0468360973 -6.55E-02
    28 OT LS       0.34E+00    0.8                    -1322.0901291181
    29 OT CG       0.34E+00    1.5     0.00108351     -1322.0901322557 -4.33E-02
    30 OT LS       0.34E+00    0.9                    -1322.1181696868
    31 OT CG       0.34E+00    1.3     0.00086643     -1322.1181699005 -2.80E-02
    32 OT LS       0.35E+00    0.8                    -1322.1361791413
    33 OT CG       0.35E+00    1.4     0.00070471     -1322.1361794042 -1.80E-02
    34 OT LS       0.34E+00    0.9                    -1322.1477959828
    35 OT CG       0.34E+00    1.3     0.00056041     -1322.1478035013 -1.16E-02
    36 OT LS       0.35E+00    1.0                    -1322.1554927405
    37 OT CG       0.35E+00    1.6     0.00045595     -1322.1555088769 -7.71E-03
    38 OT LS       0.34E+00    1.0                    -1322.1604065686
    39 OT CG       0.34E+00    1.6     0.00036746     -1322.1604143312 -4.91E-03
    40 OT LS       0.34E+00    0.8                    -1322.1636311767
    41 OT CG       0.34E+00    1.4     0.00029090     -1322.1636314758 -3.22E-03
    42 OT LS       0.36E+00    0.8                    -1322.1657412633
    43 OT CG       0.36E+00    1.4     0.00023959     -1322.1657458317 -2.11E-03
    44 OT LS       0.36E+00    0.8                    -1322.1671795784
    45 OT CG       0.36E+00    1.3     0.00019548     -1322.1671795786 -1.43E-03
    46 OT LS       0.36E+00    0.7                    -1322.1681298183
    47 OT CG       0.36E+00    1.7     0.00016219     -1322.1681298361 -9.50E-04
    48 OT LS       0.36E+00    0.8                    -1322.1687788303
    49 OT CG       0.36E+00    1.3     0.00013305     -1322.1687788702 -6.49E-04
    50 OT LS       0.36E+00    1.0                    -1322.1692240579
    51 OT CG       0.36E+00    1.5     0.00011068     -1322.1692242235 -4.45E-04
    52 OT LS       0.36E+00    0.8                    -1322.1695283687
    53 OT CG       0.36E+00    1.3     0.00009351     -1322.1695284210 -3.04E-04
    54 OT LS       0.36E+00    0.7                    -1322.1697482687
    55 OT CG       0.36E+00    1.5     0.00007820     -1322.1697483029 -2.20E-04
    56 OT LS       0.38E+00    0.8                    -1322.1699081818
    57 OT CG       0.38E+00    1.4     0.00006753     -1322.1699084323 -1.60E-04
    58 OT LS       0.38E+00    0.8                    -1322.1700276550
    59 OT CG       0.38E+00    1.5     0.00005804     -1322.1700276552 -1.19E-04
    60 OT LS       0.37E+00    0.7                    -1322.1701152935
    61 OT CG       0.37E+00    1.3     0.00005050     -1322.1701152957 -8.76E-05
    62 OT LS       0.36E+00    0.7                    -1322.1701788462
    63 OT CG       0.36E+00    2.0     0.00004311     -1322.1701789590 -6.37E-05
    64 OT LS       0.37E+00    1.0                    -1322.1702271728
    65 OT CG       0.37E+00    1.7     0.00003698     -1322.1702272476 -4.83E-05
    66 OT LS       0.37E+00    0.9                    -1322.1702619883
    67 OT CG       0.37E+00    1.3     0.00003192     -1322.1702620056 -3.48E-05
    68 OT LS       0.37E+00    0.7                    -1322.1702882227
    69 OT CG       0.37E+00    1.3     0.00002766     -1322.1702882267 -2.62E-05
    70 OT LS       0.37E+00    0.7                    -1322.1703080919
    71 OT CG       0.37E+00    1.4     0.00002420     -1322.1703080934 -1.99E-05
    72 OT LS       0.38E+00    0.7                    -1322.1703235646
    73 OT CG       0.38E+00    1.5     0.00002160     -1322.1703235694 -1.55E-05
    74 OT LS       0.38E+00    0.8                    -1322.1703358072
    75 OT CG       0.38E+00    1.3     0.00001924     -1322.1703358079 -1.22E-05
    76 OT LS       0.39E+00    0.7                    -1322.1703457159
    77 OT CG       0.39E+00    1.3     0.00001751     -1322.1703457199 -9.91E-06
    78 OT LS       0.39E+00    0.7                    -1322.1703540879
    79 OT CG       0.39E+00    1.3     0.00001599     -1322.1703540912 -8.37E-06
    80 OT LS       0.39E+00    0.9                    -1322.1703610356
    81 OT CG       0.39E+00    1.3     0.00001462     -1322.1703610358 -6.94E-06
    82 OT LS       0.39E+00    1.0                    -1322.1703667922
    83 OT CG       0.39E+00    1.7     0.00001338     -1322.1703667926 -5.76E-06
    84 OT LS       0.39E+00    0.8                    -1322.1703716503
    85 OT CG       0.39E+00    1.2     0.00001219     -1322.1703716505 -4.86E-06
    86 OT LS       0.40E+00    0.7                    -1322.1703757835
    87 OT CG       0.40E+00    1.2     0.00001124     -1322.1703757862 -4.14E-06
    88 OT LS       0.40E+00    0.9                    -1322.1703792624
    89 OT CG       0.40E+00    1.4     0.00001032     -1322.1703792629 -3.48E-06
    90 OT LS       0.40E+00    1.1                    -1322.1703822206
    91 OT CG       0.40E+00    2.0     0.00000954     -1322.1703822208 -2.96E-06
    92 OT LS       0.41E+00    0.8                    -1322.1703848325
    93 OT CG       0.41E+00    1.4     0.00000899     -1322.1703848354 -2.61E-06
    94 OT LS       0.41E+00    0.8                    -1322.1703871244
    95 OT CG       0.41E+00    1.4     0.00000859     -1322.1703871249 -2.29E-06
    96 OT LS       0.40E+00    0.8                    -1322.1703891627
    97 OT CG       0.40E+00    1.4     0.00000802     -1322.1703891638 -2.04E-06
    98 OT LS       0.40E+00    0.8                    -1322.1703909720
    99 OT CG       0.40E+00    1.5     0.00000761     -1322.1703909725 -1.81E-06
   100 OT LS       0.41E+00    0.9                    -1322.1703926127
   101 OT CG       0.41E+00    1.3     0.00000718     -1322.1703926128 -1.64E-06
   102 OT LS       0.40E+00    0.7                    -1322.1703940572
   103 OT CG       0.40E+00    1.4     0.00000679     -1322.1703940573 -1.44E-06
   104 OT LS       0.40E+00    0.7                    -1322.1703953250
   105 OT CG       0.40E+00    1.3     0.00000635     -1322.1703953255 -1.27E-06
   106 OT LS       0.39E+00    0.9                    -1322.1703964273
   107 OT CG       0.39E+00    1.6     0.00000580     -1322.1703964274 -1.10E-06
   108 OT LS       0.40E+00    0.8                    -1322.1703973640
   109 OT CG       0.40E+00    1.4     0.00000538     -1322.1703973643 -9.37E-07
   110 OT LS       0.40E+00    0.8                    -1322.1703981575
   111 OT CG       0.40E+00    1.4     0.00000493     -1322.1703981576 -7.93E-07
   112 OT LS       0.39E+00    0.7                    -1322.1703988195
   113 OT CG       0.39E+00    1.2     0.00000454     -1322.1703988195 -6.62E-07
   114 OT LS       0.39E+00    0.8                    -1322.1703993735
   115 OT CG       0.39E+00    1.6     0.00000412     -1322.1703993736 -5.54E-07
   116 OT LS       0.39E+00    1.2                    -1322.1703998337
   117 OT CG       0.39E+00    1.8     0.00000381     -1322.1703998337 -4.60E-07
   118 OT LS       0.39E+00    0.9                    -1322.1704002286
   119 OT CG       0.39E+00    1.9     0.00000358     -1322.1704002286 -3.95E-07
   120 OT LS       0.39E+00    0.8                    -1322.1704005762
   121 OT CG       0.39E+00    1.3     0.00000330     -1322.1704005762 -3.48E-07
   122 OT LS       0.40E+00    0.9                    -1322.1704008809
   123 OT CG       0.40E+00    1.5     0.00000303     -1322.1704008812 -3.05E-07
   124 OT LS       0.40E+00    0.7                    -1322.1704011387
   125 OT CG       0.40E+00    1.4     0.00000280     -1322.1704011387 -2.57E-07
   126 OT LS       0.40E+00    0.9                    -1322.1704013559
   127 OT CG       0.40E+00    1.4     0.00000261     -1322.1704013560 -2.17E-07
   128 OT LS       0.40E+00    0.7                    -1322.1704015465
   129 OT CG       0.40E+00    1.5     0.00000243     -1322.1704015465 -1.91E-07
   130 OT LS       0.39E+00    0.8                    -1322.1704017083
   131 OT CG       0.39E+00    1.3     0.00000224     -1322.1704017083 -1.62E-07
   132 OT LS       0.40E+00    0.8                    -1322.1704018493
   133 OT CG       0.40E+00    1.3     0.00000207     -1322.1704018494 -1.41E-07
   134 OT LS       0.40E+00    0.9                    -1322.1704019698
   135 OT CG       0.40E+00    1.4     0.00000192     -1322.1704019698 -1.20E-07
   136 OT LS       0.40E+00    0.8                    -1322.1704020720
   137 OT CG       0.40E+00    1.3     0.00000176     -1322.1704020720 -1.02E-07
   138 OT LS       0.38E+00    0.7                    -1322.1704021548
   139 OT CG       0.38E+00    1.3     0.00000157     -1322.1704021550 -8.30E-08
   140 OT LS       0.39E+00    0.9                    -1322.1704022214
   141 OT CG       0.39E+00    1.6     0.00000141     -1322.1704022214 -6.64E-08
   142 OT LS       0.39E+00    1.0                    -1322.1704022753
   143 OT CG       0.39E+00    1.8     0.00000126     -1322.1704022753 -5.39E-08
   144 OT LS       0.39E+00    0.8                    -1322.1704023176
   145 OT CG       0.39E+00    1.4     0.00000113     -1322.1704023176 -4.23E-08
   146 OT LS       0.37E+00    0.9                    -1322.1704023502
   147 OT CG       0.37E+00    1.3     0.00000100     -1322.1704023503 -3.26E-08

[...]
 flops    19 x     2 x    12            104435856     100.0%      0.0%      0.0%
 flops     2 x    19 x    12            104435856     100.0%      0.0%      0.0%
 flops    12 x    12 x    32            116563968     100.0%      0.0%      0.0%
 flops    12 x    32 x    12            116563968     100.0%      0.0%      0.0%
 flops    32 x    12 x    12            116563968     100.0%      0.0%      0.0%
 flops    19 x     2 x    15            130544820     100.0%      0.0%      0.0%
 flops     2 x    19 x    15            130544820     100.0%      0.0%      0.0%
 flops    12 x    12 x    28            135644544     100.0%      0.0%      0.0%
 flops    27 x    12 x    12            141251040     100.0%      0.0%      0.0%
 flops    15 x    15 x    27            158958450     100.0%      0.0%      0.0%
 flops     2 x     8 x    12            175891968     100.0%      0.0%      0.0%
 flops     8 x     2 x    12            175891968     100.0%      0.0%      0.0%
 flops    28 x    12 x    12            188334720     100.0%      0.0%      0.0%
 flops    19 x    19 x    12            188979168     100.0%      0.0%      0.0%
 flops    15 x    15 x    28            211944600     100.0%      0.0%      0.0%
 flops     2 x    12 x     2            215744256     100.0%      0.0%      0.0%
 flops     2 x     8 x    15            219864960     100.0%      0.0%      0.0%
 flops     8 x     2 x    15            219864960     100.0%      0.0%      0.0%
 flops    27 x    15 x    15            220704750     100.0%      0.0%      0.0%
 flops    15 x    15 x    32            226728000     100.0%      0.0%      0.0%
 flops    15 x    32 x    15            226728000     100.0%      0.0%      0.0%
 flops    32 x    15 x    15            226728000     100.0%      0.0%      0.0%
 flops    19 x    19 x    15            236223960     100.0%      0.0%      0.0%
 flops     2 x    15 x     2            265870080     100.0%      0.0%      0.0%
 flops    19 x     8 x    12            278495616     100.0%      0.0%      0.0%
 flops     8 x    19 x    12            278495616     100.0%      0.0%      0.0%
 flops    28 x    15 x    15            294273000     100.0%      0.0%      0.0%
 flops    19 x    12 x     2            341595072     100.0%      0.0%      0.0%
 flops     2 x    12 x    19            341595072     100.0%      0.0%      0.0%
 flops    27 x    12 x    27            342064296     100.0%      0.0%      0.0%
 flops    19 x     8 x    15            348119520     100.0%      0.0%      0.0%
 flops     8 x    19 x    15            348119520     100.0%      0.0%      0.0%
 flops    19 x    15 x     2            420960960     100.0%      0.0%      0.0%
 flops     2 x    15 x    19            420960960     100.0%      0.0%      0.0%
 flops    27 x    15 x    27            427580370     100.0%      0.0%      0.0%
 flops    27 x    12 x    28            456085728     100.0%      0.0%      0.0%
 flops    28 x    12 x    27            456085728     100.0%      0.0%      0.0%
 flops     8 x     8 x    12            485796864     100.0%      0.0%      0.0%
 flops    19 x    12 x    19            540858864     100.0%      0.0%      0.0%
 flops    27 x    15 x    28            570107160     100.0%      0.0%      0.0%
 flops    28 x    15 x    27            570107160     100.0%      0.0%      0.0%
 flops     2 x    12 x     8            575318016     100.0%      0.0%      0.0%
 flops     8 x    12 x     2            575318016     100.0%      0.0%      0.0%
 flops     8 x     8 x    15            607246080     100.0%      0.0%      0.0%
 flops    28 x    12 x    28            608114304     100.0%      0.0%      0.0%
 flops    19 x    15 x    19            666521520     100.0%      0.0%      0.0%
 flops     2 x    15 x     8            708986880     100.0%      0.0%      0.0%
 flops     8 x    15 x     2            708986880     100.0%      0.0%      0.0%
 flops    28 x    15 x    28            760142880     100.0%      0.0%      0.0%
 flops    19 x    12 x     8            910920192     100.0%      0.0%      0.0%
 flops     8 x    12 x    19            910920192     100.0%      0.0%      0.0%
 flops    12 x    32 x    27           1085156352     100.0%      0.0%      0.0%
 flops    32 x    12 x    27           1085156352     100.0%      0.0%      0.0%
 flops    19 x    15 x     8           1122562560     100.0%      0.0%      0.0%
 flops     8 x    15 x    19           1122562560     100.0%      0.0%      0.0%
 flops    32 x    32 x    12           1243348992     100.0%      0.0%      0.0%
 flops    12 x    32 x    32           1243348992     100.0%      0.0%      0.0%
 flops    32 x    12 x    32           1243348992     100.0%      0.0%      0.0%
 flops    12 x    32 x    28           1446875136     100.0%      0.0%      0.0%
 flops    32 x    12 x    28           1446875136     100.0%      0.0%      0.0%
 flops    27 x    32 x    12           1506677760     100.0%      0.0%      0.0%
 flops    27 x    12 x    32           1506677760     100.0%      0.0%      0.0%
 flops     8 x    12 x     8           1534181376     100.0%      0.0%      0.0%
 flops     2 x     2 x    32           1620718848     100.0%      0.0%      0.0%
 flops    15 x    32 x    27           1695556800     100.0%      0.0%      0.0%
 flops    32 x    15 x    27           1695556800     100.0%      0.0%      0.0%
 flops     8 x    15 x     8           1890631680     100.0%      0.0%      0.0%
 flops    28 x    12 x    32           2008903680     100.0%      0.0%      0.0%
 flops    28 x    32 x    12           2008903680     100.0%      0.0%      0.0%
 flops    15 x    32 x    28           2260742400     100.0%      0.0%      0.0%
 flops    32 x    15 x    28           2260742400     100.0%      0.0%      0.0%
 flops    27 x    32 x    15           2354184000     100.0%      0.0%      0.0%
 flops    27 x    15 x    32           2354184000     100.0%      0.0%      0.0%
 flops    32 x    32 x    15           2418432000     100.0%      0.0%      0.0%
 flops    15 x    32 x    32           2418432000     100.0%      0.0%      0.0%
 flops    32 x    15 x    32           2418432000     100.0%      0.0%      0.0%
 flops    19 x     2 x    32           2506460544     100.0%      0.0%      0.0%
 flops     2 x    19 x    32           2506460544     100.0%      0.0%      0.0%
 flops    28 x    15 x    32           3138912000     100.0%      0.0%      0.0%
 flops    28 x    32 x    15           3138912000     100.0%      0.0%      0.0%
 flops     2 x     8 x    32           4221407232     100.0%      0.0%      0.0%
 flops     8 x     2 x    32           4221407232     100.0%      0.0%      0.0%
 flops    19 x    19 x    32           4535500032     100.0%      0.0%      0.0%
 flops     2 x    32 x     2           5137219584     100.0%      0.0%      0.0%
 flops    19 x     8 x    32           6683894784     100.0%      0.0%      0.0%
 flops     8 x    19 x    32           6683894784     100.0%      0.0%      0.0%
 flops    19 x    32 x     2           8133931008     100.0%      0.0%      0.0%
 flops     2 x    32 x    19           8133931008     100.0%      0.0%      0.0%
 flops    27 x    32 x    27           8209543104     100.0%      0.0%      0.0%
 flops    27 x    32 x    28          10946057472     100.0%      0.0%      0.0%
 flops    28 x    32 x    27          10946057472     100.0%      0.0%      0.0%
 flops     8 x     8 x    32          11659124736     100.0%      0.0%      0.0%
 flops    19 x    32 x    19          12878724096     100.0%      0.0%      0.0%
 flops     2 x    32 x     8          13699252224     100.0%      0.0%      0.0%
 flops     8 x    32 x     2          13699252224     100.0%      0.0%      0.0%
 flops    28 x    32 x    28          14594743296     100.0%      0.0%      0.0%
 flops    19 x    32 x     8          21690482688     100.0%      0.0%      0.0%
 flops     8 x    32 x    19          21690482688     100.0%      0.0%      0.0%
 flops    32 x    32 x    27          29660940288     100.0%      0.0%      0.0%
 flops     8 x    32 x     8          36531339264     100.0%      0.0%      0.0%
 flops    32 x    32 x    32          39058997248     100.0%      0.0%      0.0%
 flops    32 x    32 x    28          39547920384     100.0%      0.0%      0.0%
 flops    27 x    32 x    32          41182525440     100.0%      0.0%      0.0%
 flops    28 x    32 x    32          54910033920     100.0%      0.0%      0.0%
 flops inhomo. stacks                           0       0.0%      0.0%      0.0%
 flops total                       501.586414E+09     100.0%      0.0%      0.0%
 flops max/rank                      9.826186E+09     100.0%      0.0%      0.0%
 matmuls inhomo. stacks                         0       0.0%      0.0%      0.0%
 matmuls total                          114752509     100.0%      0.0%      0.0%
 number of processed stacks              28308406     100.0%      0.0%      0.0%
 average stack size                                     4.1       0.0       0.0
 marketing flops                   549.637030E+09
 -------------------------------------------------------------------------------
 # multiplications                          20197
 max memory usage/rank             393.641984E+06
 # max total images/rank                        1
 # max 3D layers                                1
 # MPI messages exchanged               155112960
 MPI messages size (bytes):
  total size                       290.852045E+09
  min size                           0.000000E+00
  max size                           8.192000E+03
  average size                       1.875098E+03
 MPI breakdown and total messages size (bytes):
             size <=      128           108913065                        0
       128 < size <=     8192            46199895             290911224360
      8192 < size <=    32768                   0                        0
     32768 < size <=   131072                   0                        0
    131072 < size <=  4194304                   0                        0
   4194304 < size <= 16777216                   0                        0
  16777216 < size                               0                        0
 -------------------------------------------------------------------------------

 MEMORY| Estimated peak process memory [MiB]                                 376

 -------------------------------------------------------------------------------
 ----                             MULTIGRID INFO                            ----
 -------------------------------------------------------------------------------
 count for grid        1:        4539646          cutoff [a.u.]          250.00
 count for grid        2:        1740950          cutoff [a.u.]           83.33
 count for grid        3:         923129          cutoff [a.u.]           27.78
 count for grid        4:         279130          cutoff [a.u.]            9.26
 count for grid        5:           2560          cutoff [a.u.]            3.09
 total gridlevel count  :        7485415

 -------------------------------------------------------------------------------
 -                                                                             -
 -                         MESSAGE PASSING PERFORMANCE                         -
 -                                                                             -
 -------------------------------------------------------------------------------

 ROUTINE             CALLS      AVE VOLUME [Bytes]
 MP_Group              832
 MP_Bcast            23821                  14433.
 MP_Allreduce       104429                    135.
 MP_Sync              7407
 MP_Alltoall         90588                1045722.
 MP_ISendRecv      2577540                  24500.
 MP_Wait           5705934
 MP_comm_split         347
 MP_ISend          1493574                  30935.
 MP_IRecv          1493574                  30697.
 MP_Recv              1590                  34139.
 MP_Memory          797920
 -------------------------------------------------------------------------------


 -------------------------------------------------------------------------------
 -                                                                             -
 -                           R E F E R E N C E S                               -
 -                                                                             -
 -------------------------------------------------------------------------------
 
 CP2K version 5.1, the CP2K developers group (2017).
 CP2K is freely available from https://www.cp2k.org/ .

 Schuett, Ole; Messmer, Peter; Hutter, Juerg; VandeVondele, Joost. 
 Electronic Structure Calculations on Graphics Processing Units, John Wiley & Sons, Ltd, 173-190 (2016). 
 GPU-Accelerated Sparse Matrix-Matrix Multiplication for Linear Scaling Density Functional Theory.
 http://dx.doi.org/10.1002/9781118670712.ch8


 Borstnik, U; VandeVondele, J; Weber, V; Hutter, J. 
 PARALLEL COMPUTING, 40 (5-6), 47-58 (2014). 
 Sparse matrix multiplication: The distributed block-compressed sparse
 row library.
 http://dx.doi.org/10.1016/j.parco.2014.03.012


 Hutter, J; Iannuzzi, M; Schiffmann, F; VandeVondele, J. 
 WILEY INTERDISCIPLINARY REVIEWS-COMPUTATIONAL MOLECULAR SCIENCE, 4 (1), 15-25 (2014). 
 CP2K: atomistic simulations of condensed matter systems.
 http://dx.doi.org/10.1002/wcms.1159


 Guidon, M; Hutter, J; VandeVondele, J. 
 JOURNAL OF CHEMICAL THEORY AND COMPUTATION, 5 (11), 3010-3021 (2009). 
 Robust Periodic Hartree-Fock Exchange for Large-Scale Simulations Using
 Gaussian Basis Sets.
 http://dx.doi.org/10.1021/ct900494g


 Guidon, M; Schiffmann, F; Hutter, J; VandeVondele, J. 
 JOURNAL OF CHEMICAL PHYSICS, 128 (21), 214104 (2008). 
 Ab initio molecular dynamics using hybrid density functionals.
 http://dx.doi.org/10.1063/1.2931945


 Krack, M. 
 THEORETICAL CHEMISTRY ACCOUNTS, 114 (1-3), 145-152 (2005). 
 Pseudopotentials for H to Kr optimized for gradient-corrected
 exchange-correlation functionals.
 http://dx.doi.org/10.1007/s00214-005-0655-y


 VandeVondele, J; Krack, M; Mohamed, F; Parrinello, M; Chassaing, T;
 Hutter, J. COMPUTER PHYSICS COMMUNICATIONS, 167 (2), 103-128 (2005). 
 QUICKSTEP: Fast and accurate density functional calculations using a
 mixed Gaussian and plane waves approach.
 http://dx.doi.org/10.1016/j.cpc.2004.12.014


 Frigo, M; Johnson, SG. 
 PROCEEDINGS OF THE IEEE, 93 (2), 216-231 (2005). 
 The design and implementation of FFTW3.
 http://dx.doi.org/10.1109/JPROC.2004.840301


 Kolafa, J. 
 JOURNAL OF COMPUTATIONAL CHEMISTRY, 25 (3), 335-342 (2004). 
 Time-reversible always stable predictor-corrector method for molecular dynamics of polarizable molecules.
 http://dx.doi.org/10.1002/jcc.10385


 VandeVondele, J; Hutter, J. 
 JOURNAL OF CHEMICAL PHYSICS, 118 (10), 4365-4369 (2003). 
 An efficient orbital transformation method for electronic structure
 calculations.
 http://dx.doi.org/10.1063/1.1543154


 Hartwigsen, C; Goedecker, S; Hutter, J. 
 PHYSICAL REVIEW B, 58 (7), 3641-3662 (1998). 
 Relativistic separable dual-space Gaussian pseudopotentials from H to Rn.
 http://dx.doi.org/10.1103/PhysRevB.58.3641


 Lippert, G; Hutter, J; Parrinello, M. 
 MOLECULAR PHYSICS, 92 (3), 477-487 (1997). 
 A hybrid Gaussian and plane wave density functional scheme.
 http://dx.doi.org/10.1080/002689797170220


 Goedecker, S; Teter, M; Hutter, J. 
 PHYSICAL REVIEW B, 54 (3), 1703-1710 (1996). 
 Separable dual-space Gaussian pseudopotentials.
 http://dx.doi.org/10.1103/PhysRevB.54.1703


 -------------------------------------------------------------------------------
 -                                                                             -
 -                                T I M I N G                                  -
 -                                                                             -
 -------------------------------------------------------------------------------
 SUBROUTINE                       CALLS  ASD         SELF TIME        TOTAL TIME
                                MAXIMUM       AVERAGE  MAXIMUM  AVERAGE  MAXIMUM
 CP2K                                 1  1.0    0.196    0.217 3179.035 3179.041
 cp_geo_opt                           1  2.0    0.047    0.052 3177.985 3177.987
 geoopt_bfgs                          1  3.0    0.018    0.025 3177.938 3177.952
 cp_eval_at                          18  4.0    0.002    0.003 3176.529 3176.530
 qs_forces                           17  5.0    0.002    0.003 3119.761 3119.763
 rebuild_ks_matrix                  761  9.9    0.002    0.002 2708.871 2708.972
 qs_ks_build_kohn_sham_matrix       761 10.9    0.081    0.109 2708.869 2708.970
 hfx_ks_matrix                      761 11.9    0.011    0.012 2480.173 2481.333
 qs_ks_update_qs_env_forces          17  6.0    0.000    0.000 1788.833 1788.836
 derivatives_four_center             17 10.0    0.138    0.611 1773.600 1773.651
 derivatives_four_center_main        17 11.0    0.010    0.012 1772.545 1772.598
 derivatives_four_center_bin       1107 12.0 1631.181 1728.057 1631.181 1728.057
 qs_energies                         18  5.9    0.004    0.009 1387.400 1387.423
 scf_env_do_scf                      18  6.9    0.002    0.002 1368.720 1368.720
 qs_ks_update_qs_env                762  9.0    0.005    0.008  920.736  920.928
 scf_env_do_scf_inner_loop          744  8.0    0.059    0.090  806.996  807.435
 integrate_four_center              761 12.9    1.004    1.375  706.509  707.672
 integrate_four_center_main         761 13.9    0.098    0.114  634.305  660.230
 integrate_four_center_bin        49521 14.9  634.207  660.118  634.207  660.118
 init_scf_loop                       18  7.9    0.012    0.016  561.149  561.160
 qs_rho_update_rho                  762  9.0    0.005    0.006  413.019  413.375
 calculate_rho_elec                1524 10.0   10.270   54.718  413.014  413.370
 density_rs2pw                     1524 11.0    0.090    0.108  352.828  373.019
 pw_transfer                      15062 12.8    0.769    0.975  268.799  287.088
 fft_wrap_pw1pw2                  13540 13.8    0.105    0.141  265.083  283.370
 rs_pw_transfer                   11689 13.0    0.152    0.181  247.273  253.943
 fft3d_ps                         13540 15.8   63.984   91.809  227.515  243.552
 fft_wrap_pw1pw2_250               4260 14.5   11.195   15.115  216.039  237.272
 mp_sum_lv                          178  5.8  141.409  206.113  141.409  206.113
 sum_up_and_integrate               398 11.8    0.003    0.004  190.017  190.187
 integrate_v_rspace                 796 12.8    6.561   38.747  190.014  190.184
 potential_pw2rs                    796 13.8    0.089    0.101  143.847  144.456
 mp_alltoall_z22v                 13540 17.8  110.003  119.094  110.003  119.094
 mp_waitany                      201110 14.9   70.118   88.902   70.118   88.902
 rs_pw_transfer_RS2PW_250          1560 13.0   31.467   40.689   76.442   85.531
 yz_to_x                           2338 16.9    7.199    9.339   76.348   82.397
 mp_sync                           7407 14.8   62.045   73.199   62.045   73.199
 mp_waitall_1                   5504824 16.0   65.824   71.331   65.824   71.331
 -------------------------------------------------------------------------------

 The number of warnings for this run is : 0
 
 -------------------------------------------------------------------------------
  **** **** ******  **  PROGRAM ENDED AT                 2019-09-11 22:03:26.546
 ***** ** ***  *** **   PROGRAM RAN ON            cpn-u22-34.cbls.ccr.buffalo.ed
 **    ****   ******    PROGRAM RAN BY                                  pavankum
 ***** **    ** ** **   PROGRAM PROCESS ID                                 23602
  **** **  *******  **  PROGRAM STOPPED IN /projects/academic/mdupuis2/pavan/VAB
                                           _calculation/results_for_paper/3.1D_F
                                           e_7units/HF/neutral
