 DBCSR| Multiplication driver                                               BLAS
 DBCSR| Multrec recursion limit                                              512
 DBCSR| Multiplication stack size                                           1000
 DBCSR| Maximum elements for images                                    UNLIMITED
 DBCSR| Multiplicative factor virtual images                                   1
 DBCSR| Multiplication size stacks                                             3
 DBCSR| Number of 3D layers                                               SINGLE
 DBCSR| Use MPI memory allocation                                              T
 DBCSR| Use RMA algorithm                                                      F
 DBCSR| Use Communication thread                                               T
 DBCSR| Communication thread load                                             87


  **** **** ******  **  PROGRAM STARTED AT               2019-07-25 10:55:21.997
 ***** ** ***  *** **   PROGRAM STARTED ON        cpn-p28-36.cbls.ccr.buffalo.ed
 **    ****   ******    PROGRAM STARTED BY                              pavankum
 ***** **    ** ** **   PROGRAM PROCESS ID                                 76281
  **** **  *******  **  PROGRAM STARTED IN /projects/academic/mdupuis2/pavan/VAB
                                           _calculation/results_for_paper/1.He2+
                                           /r_6

 CP2K| version string:                                          CP2K version 6.1
 CP2K| source code revision number:                                    svn:18464
 CP2K| cp2kflags: libint fftw3 libxc parallel mpi3 scalapack libderiv_max_am1=5 
 CP2K|            libint_max_am=6
 CP2K| is freely available from                            https://www.cp2k.org/
 CP2K| Program compiled at                          Fri Nov 30 14:17:09 EST 2018
 CP2K| Program compiled on                       srv-p22-12.cbls.ccr.buffalo.edu
 CP2K| Program compiled for                                                local
 CP2K| Data directory path    /projects/academic/mdupuis2/pavan/cp2k/cp2k-6.1/da
 CP2K| Input file name                                                 input.inp

 GLOBAL| Force Environment number                                              3
 GLOBAL| Basis set file name                                           BASIS_SET
 GLOBAL| Potential file name                                           POTENTIAL
 GLOBAL| MM Potential file name                                     MM_POTENTIAL
 GLOBAL| Coordinate file name                                     ./geometry.xyz
 GLOBAL| Force Environment number                                              1
 GLOBAL| Basis set file name                                          ./HE_onlyS
 GLOBAL| Potential file name                                         ./POTENTIAL
 GLOBAL| MM Potential file name                                     MM_POTENTIAL
 GLOBAL| Coordinate file name                                       ./state0.xyz
 GLOBAL| Force Environment number                                              2
 GLOBAL| Basis set file name                                          ./HE_onlyS
 GLOBAL| Potential file name                                         ./POTENTIAL
 GLOBAL| MM Potential file name                                     MM_POTENTIAL
 GLOBAL| Coordinate file name                                       ./state1.xyz
 GLOBAL| Method name                                                        CP2K
 GLOBAL| Project name                                                      p_he_
 GLOBAL| Preferred FFT library                                             FFTW3
 GLOBAL| Preferred diagonalization lib.                                       SL
 GLOBAL| Run type                                                         ENERGY
 GLOBAL| All-to-all communication in single precision                          F
 GLOBAL| FFTs using library dependent lengths                                  T
 GLOBAL| Global print level                                               MEDIUM
 GLOBAL| Total number of message passing processes                             8
 GLOBAL| Number of threads for this process                                    1
 GLOBAL| This output is from process                                           0
 GLOBAL| CPU model name :  Intel(R) Xeon(R) CPU E5-2650 v3 @ 2.30GHz

 MEMORY| system memory details [Kb]
 MEMORY|                        rank 0           min           max       average
 MEMORY| MemTotal            131740876     131740876     131740876     131740876
 MEMORY| MemFree             126941744     126941744     126941744     126941744
 MEMORY| Buffers                341196        341196        341196        341196
 MEMORY| Cached                1365852       1365852       1365852       1365852
 MEMORY| Slab                   318904        318904        318904        318904
 MEMORY| SReclaimable           162444        162444        162444        162444
 MEMORY| MemLikelyFree       128811236     128811236     128811236     128811236


 *** Fundamental physical constants (SI units) ***

 *** Literature: B. J. Mohr and B. N. Taylor,
 ***             CODATA recommended values of the fundamental physical
 ***             constants: 2006, Web Version 5.1
 ***             http://physics.nist.gov/constants

 Speed of light in vacuum [m/s]                             2.99792458000000E+08
 Magnetic constant or permeability of vacuum [N/A**2]       1.25663706143592E-06
 Electric constant or permittivity of vacuum [F/m]          8.85418781762039E-12
 Planck constant (h) [J*s]                                  6.62606896000000E-34
 Planck constant (h-bar) [J*s]                              1.05457162825177E-34
 Elementary charge [C]                                      1.60217648700000E-19
 Electron mass [kg]                                         9.10938215000000E-31
 Electron g factor [ ]                                     -2.00231930436220E+00
 Proton mass [kg]                                           1.67262163700000E-27
 Fine-structure constant                                    7.29735253760000E-03
 Rydberg constant [1/m]                                     1.09737315685270E+07
 Avogadro constant [1/mol]                                  6.02214179000000E+23
 Boltzmann constant [J/K]                                   1.38065040000000E-23
 Atomic mass unit [kg]                                      1.66053878200000E-27
 Bohr radius [m]                                            5.29177208590000E-11

 *** Conversion factors ***

 [u] -> [a.u.]                                              1.82288848426455E+03
 [Angstrom] -> [Bohr] = [a.u.]                              1.88972613288564E+00
 [a.u.] = [Bohr] -> [Angstrom]                              5.29177208590000E-01
 [a.u.] -> [s]                                              2.41888432650478E-17
 [a.u.] -> [fs]                                             2.41888432650478E-02
 [a.u.] -> [J]                                              4.35974393937059E-18
 [a.u.] -> [N]                                              8.23872205491840E-08
 [a.u.] -> [K]                                              3.15774647902944E+05
 [a.u.] -> [kJ/mol]                                         2.62549961709828E+03
 [a.u.] -> [kcal/mol]                                       6.27509468713739E+02
 [a.u.] -> [Pa]                                             2.94210107994716E+13
 [a.u.] -> [bar]                                            2.94210107994716E+08
 [a.u.] -> [atm]                                            2.90362800883016E+08
 [a.u.] -> [eV]                                             2.72113838565563E+01
 [a.u.] -> [Hz]                                             6.57968392072181E+15
 [a.u.] -> [1/cm] (wave numbers)                            2.19474631370540E+05
 [a.u./Bohr**2] -> [1/cm]                                   5.14048714338585E+03
 
 MIXED_ENV| Number of created MPI groups:                                      1
 MIXED_ENV| Task to group correspondence:
  (   0 :    0)  (   1 :    0)  (   2 :    0)  (   3 :    0)
  (   4 :    0)  (   5 :    0)  (   6 :    0)  (   7 :    0)
          ----------------------------------------------------------------------
 COLVARS| COLVAR INPUT INDEX:        1
 COLVARS| ENERGY          >>> ATOMS:                                        all!
          ----------------------------------------------------------------------

 CELL_TOP| Volume [angstrom^3]:                                         2744.000
 CELL_TOP| Vector a [angstrom    14.000     0.000     0.000    |a| =      14.000
 CELL_TOP| Vector b [angstrom     0.000    14.000     0.000    |b| =      14.000
 CELL_TOP| Vector c [angstrom     0.000     0.000    14.000    |c| =      14.000
 CELL_TOP| Angle (b,c), alpha [degree]:                                   90.000
 CELL_TOP| Angle (a,c), beta  [degree]:                                   90.000
 CELL_TOP| Angle (a,b), gamma [degree]:                                   90.000
 CELL_TOP| Numerically orthorhombic:                                         YES

 CELL| Volume [angstrom^3]:                                             2744.000
 CELL| Vector a [angstrom]:      14.000     0.000     0.000    |a| =      14.000
 CELL| Vector b [angstrom]:       0.000    14.000     0.000    |b| =      14.000
 CELL| Vector c [angstrom]:       0.000     0.000    14.000    |c| =      14.000
 CELL| Angle (b,c), alpha [degree]:                                       90.000
 CELL| Angle (a,c), beta  [degree]:                                       90.000
 CELL| Angle (a,b), gamma [degree]:                                       90.000
 CELL| Numerically orthorhombic:                                             YES

 CELL_REF| Volume [angstrom^3]:                                         2744.000
 CELL_REF| Vector a [angstrom    14.000     0.000     0.000    |a| =      14.000
 CELL_REF| Vector b [angstrom     0.000    14.000     0.000    |b| =      14.000
 CELL_REF| Vector c [angstrom     0.000     0.000    14.000    |c| =      14.000
 CELL_REF| Angle (b,c), alpha [degree]:                                   90.000
 CELL_REF| Angle (a,c), beta  [degree]:                                   90.000
 CELL_REF| Angle (a,b), gamma [degree]:                                   90.000
 CELL_REF| Numerically orthorhombic:                                         YES


 MOLECULE KIND INFORMATION


 All atoms are their own molecule, skipping detailed information
 nspins, nimgs, gapw_xc           2           1 F 

 ####### CHECKS ON A and B #######
  E_A before:  -4.8226682113921324     
  E_B before:  -4.8226682113921449     
 ####### - #######
##Inside build_kohn_sham_matrix() before doing any function calls
 i). ELECTRON ONLY CALLS
 1. Electron_pw   2.7799854838533817     
 2. Electron_1c   4.8352171297768809E-002
 ########## After 1st poisson call pure hartree  (sum of above two quantities) ##########   2.8283376551511505     
 ########################
ii). NUCLEAR ONLY CALLS
 1. Nuclear_pw   8.2352932953714273     
 2. Nuclear_1c   3.4012736860041257     
iii). REGULAR CALL (ELECTRON+NUCLEAR)
 1. Hartree_pw   2.2649927202053437     
 2. Hartree_1c   2.4616367204603709     
 Regular: Before call to qs_vxc Regular_exc, exc1   0.0000000000000000        0.0000000000000000     
 Regular: After call to qs_vxc_create Regular_exc, exc1   0.0000000000000000        0.0000000000000000     
 iv). EXCHANGE ENERGY   -1.6351319642687394     
 v). POTENTIAL ENERGY FROM CORE HAMILTONIAN   -1.3428817302016625     
 vi). KINETIC ENERGY    4.7125077133676818     
 vii). SELF ENERGY   -11.283791670955125     
      
 E_NUC is   0.35277531042042831     
      
IN build_kohn_sham_matrix() CALLING qs_ks_atom(),updates single atom contributions due to gapw
Inside build_kohn_sham_matrix() after doing all function calls and evaluating energy
 CHECK ON A IS DONE, E_A after passing modified PA_hat density:  -4.8226682113921306     
##Inside build_kohn_sham_matrix() before doing any function calls
 i). ELECTRON ONLY CALLS
 1. Electron_pw   2.7799854838533822     
 2. Electron_1c   4.8352171297768032E-002
 ########## After 1st poisson call pure hartree  (sum of above two quantities) ##########   2.8283376551511501     
 ########################
ii). NUCLEAR ONLY CALLS
 1. Nuclear_pw   8.2352932953714273     
 2. Nuclear_1c   3.4012736860041257     
iii). REGULAR CALL (ELECTRON+NUCLEAR)
 1. Hartree_pw   2.2649927202053379     
 2. Hartree_1c   2.4616367204603717     
 Regular: Before call to qs_vxc Regular_exc, exc1   0.0000000000000000        0.0000000000000000     
 Regular: After call to qs_vxc_create Regular_exc, exc1   0.0000000000000000        0.0000000000000000     
 iv). EXCHANGE ENERGY   -1.6351319642687372     
 v). POTENTIAL ENERGY FROM CORE HAMILTONIAN   -1.3428817302016594     
 vi). KINETIC ENERGY    4.7125077133676729     
 vii). SELF ENERGY   -11.283791670955125     
      
 E_NUC is   0.35277531042042831     
      
IN build_kohn_sham_matrix() CALLING qs_ks_atom(),updates single atom contributions due to gapw
Inside build_kohn_sham_matrix() after doing all function calls and evaluating energy
 CHECK ON B IS DONE, E_B after passing modified PB_hat density:  -4.8226682113921386     
 DOING ANTI-SYMMETRIC PART OF VAB
##Inside build_kohn_sham_matrix() before doing any function calls
 i). ELECTRON ONLY CALLS
 1. Electron_pw   1.9264458579337389E-015
 2. Electron_1c   6.3734506158772219E-048
 ########## After 1st poisson call pure hartree  (sum of above two quantities) ##########   1.9264458579337389E-015
 ########################
ii). NUCLEAR ONLY CALLS
 1. Nuclear_pw   8.2352932953714273     
 2. Nuclear_1c   3.4012736860041257     
iii). REGULAR CALL (ELECTRON+NUCLEAR)
 1. Hartree_pw   8.2352933554559797     
 2. Hartree_1c   3.4012736860041257     
 Regular: Before call to qs_vxc Regular_exc, exc1   0.0000000000000000        0.0000000000000000     
 Regular: After call to qs_vxc_create Regular_exc, exc1   0.0000000000000000        0.0000000000000000     
 iv). EXCHANGE ENERGY   -2.0578497456311823E-002
 v). POTENTIAL ENERGY FROM CORE HAMILTONIAN    0.0000000000000000     
 vi). KINETIC ENERGY    2.4211132160148685E-007
 vii). SELF ENERGY   -11.283791670955125     
      
 E_NUC is   0.35277531042042831     
      
IN build_kohn_sham_matrix() CALLING qs_ks_atom(),updates single atom contributions due to gapw
Inside build_kohn_sham_matrix() after doing all function calls and evaluating energy
 DOING SYMMETRIC PART OF VAB
##Inside build_kohn_sham_matrix() before doing any function calls
 i). ELECTRON ONLY CALLS
 1. Electron_pw   5.1353147138781717E-011
 2. Electron_1c   8.2047787045386275E-013
 ########## After 1st poisson call pure hartree  (sum of above two quantities) ##########   5.2173625009235579E-011
 ########################
 ehartree, ehartree_1c after multiplying with DTPROD/DHPROD   1.1282720041107042E-005   1.8026591607398493E-007
 dtprod, dhprod are  0.99999999999999933        4.5514864280673051E-006
 J2_AB is    1.1462985957181026E-005
ii). NUCLEAR ONLY CALLS
 1. Nuclear_pw   8.2352932953714273     
 2. Nuclear_1c   3.4012736860041257     
iii). REGULAR CALL (ELECTRON+NUCLEAR)
 1. Hartree_pw   8.2352546489020710     
 2. Hartree_1c   3.4012695209856112     
 Regular: Before call to qs_vxc Regular_exc, exc1   0.0000000000000000        0.0000000000000000     
 Regular: After call to qs_vxc_create Regular_exc, exc1   0.0000000000000000        0.0000000000000000     
 iv). EXCHANGE ENERGY   -2.0578497484702130E-002
 v). POTENTIAL ENERGY FROM CORE HAMILTONIAN   -5.6347952132057419E-006
 vi). KINETIC ENERGY    1.9432843726566355E-005
 vii). SELF ENERGY   -11.283791670955125     
      
 E_NUC is   0.35277531042042831     
      
IN build_kohn_sham_matrix() CALLING qs_ks_atom(),updates single atom contributions due to gapw
 ########################
 #########  ET  #########
 ------------------------
 E_NUC  0.35277531042042831     
 HAA <a|H|a>  -5.1754435218125590     
 HBB <b|H|b>  -5.1754435218125678     
             
 <a|H1|b>  -2.9013491531743199E-005
 <a|H2|b>   5.2253956853591643E-006
 ...<a|J2|b>   1.1462985957181026E-005
 ...<a|K2|b>  -6.2375902718218618E-006
 HAB <a|H|b>  -2.3788095846384035E-005
 SAB   4.5514864280673017E-006
 VAB   2.3213489763025430E-007
  VAB in different units 
 ------------------------
          6.3167118059192505E-006 eV
          5.0947721085638102E-002 1/cm
          1.4566684628187907E-004 kcal/mol
          6.0947008484338197E-004 kJ/mol
          1527374253.3761873      Hertz
 ------------------------
 ------------------------
 E+  -5.1754432902571601     
 E-  -5.1754437533658546     
 (E+ - E-)/2   2.3155434706062781E-007
          6.3009142215210014E-006 eV
          5.0820304963377375E-002 1/cm
          1.4530254530237130E-004 kcal/mol
          6.0794584954512146E-004 kJ/mol
          1523554414.1280501      Hertz
 ------------------------
 ------------------------
Inside build_kohn_sham_matrix() after doing all function calls and evaluating energy
 NO FORCE_EVAL section calculated the dipole

 ENERGY| Total FORCE_EVAL ( MIXED ) energy (a.u.):             0.000000000000012


 -------------------------------------------------------------------------------
 -                                                                             -
 -                                DBCSR STATISTICS                             -
 -                                                                             -
 -------------------------------------------------------------------------------
 COUNTER                                    TOTAL       BLAS       SMM       ACC
 flops     2 x     1 x     2                   64     100.0%      0.0%      0.0%
 flops     2 x     2 x     2                  768     100.0%      0.0%      0.0%
 flops inhomo. stacks                         384     100.0%      0.0%      0.0%
 flops total                         1.216000E+03     100.0%      0.0%      0.0%
 flops max/rank                    768.000000E+00     100.0%      0.0%      0.0%
 matmuls inhomo. stacks                        48     100.0%      0.0%      0.0%
 matmuls total                                104     100.0%      0.0%      0.0%
 number of processed stacks                    68     100.0%      0.0%      0.0%
 average stack size                                     1.5       0.0       0.0
 marketing flops                     1.600000E+03
 -------------------------------------------------------------------------------
 # multiplications                             34
 max memory usage/rank             593.428480E+06
 # max total images/rank                        2
 # max 3D layers                                1
 # MPI messages exchanged                    2448
 MPI messages size (bytes):
  total size                        10.176000E+03
  min size                           0.000000E+00
  max size                          64.000000E+00
  average size                       4.156863E+00
 MPI breakdown and total messages size (bytes):
             size <=      128                2448                    10176
       128 < size <=     8192                   0                        0
      8192 < size <=    32768                   0                        0
     32768 < size <=   131072                   0                        0
    131072 < size <=  4194304                   0                        0
   4194304 < size <= 16777216                   0                        0
  16777216 < size                               0                        0
 -------------------------------------------------------------------------------

 *** WARNING in dbcsr/mm/dbcsr_mm.F:268 :: Using a non-square number of ***
 *** MPI ranks might lead to poor performance.                          ***
 *** Used ranks: 8                                                      ***
 *** Suggested: 9 16                                                    ***

 -------------------------------------------------------------------------------

 MEMORY| Estimated peak process memory [MiB]                                 567

 -------------------------------------------------------------------------------
 -                                                                             -
 -                         MESSAGE PASSING PERFORMANCE                         -
 -                                                                             -
 -------------------------------------------------------------------------------

 ROUTINE             CALLS      AVE VOLUME [Bytes]
 MP_Group               77
 MP_Bcast              296                  11730.
 MP_Allreduce         1190                   1465.
 MP_Sync               227
 MP_Alltoall          1638                2743964.
 MP_ISendRecv         2184                 183903.
 MP_Wait              5766
 MP_comm_split          33
 MP_ISend             2372                 509153.
 MP_IRecv             2308                 523270.
 MP_Recv                 2                     32.
 MP_Memory            2024
 -------------------------------------------------------------------------------


 -------------------------------------------------------------------------------
 -                                                                             -
 -                           R E F E R E N C E S                               -
 -                                                                             -
 -------------------------------------------------------------------------------
 
 CP2K version 6.1, the CP2K developers group (2018).
 CP2K is freely available from https://www.cp2k.org/ .

 Schuett, Ole; Messmer, Peter; Hutter, Juerg; VandeVondele, Joost. 
 Electronic Structure Calculations on Graphics Processing Units, John Wiley & Sons, Ltd, 173-190 (2016). 
 GPU-Accelerated Sparse Matrix-Matrix Multiplication for Linear Scaling Density Functional Theory.
 http://dx.doi.org/10.1002/9781118670712.ch8


 Borstnik, U; VandeVondele, J; Weber, V; Hutter, J. 
 PARALLEL COMPUTING, 40 (5-6), 47-58 (2014). 
 Sparse matrix multiplication: The distributed block-compressed sparse
 row library.
 http://dx.doi.org/10.1016/j.parco.2014.03.012


 Hutter, J; Iannuzzi, M; Schiffmann, F; VandeVondele, J. 
 WILEY INTERDISCIPLINARY REVIEWS-COMPUTATIONAL MOLECULAR SCIENCE, 4 (1), 15-25 (2014). 
 CP2K: atomistic simulations of condensed matter systems.
 http://dx.doi.org/10.1002/wcms.1159


 Guidon, M; Hutter, J; VandeVondele, J. 
 JOURNAL OF CHEMICAL THEORY AND COMPUTATION, 5 (11), 3010-3021 (2009). 
 Robust Periodic Hartree-Fock Exchange for Large-Scale Simulations Using
 Gaussian Basis Sets.
 http://dx.doi.org/10.1021/ct900494g


 Guidon, M; Schiffmann, F; Hutter, J; VandeVondele, J. 
 JOURNAL OF CHEMICAL PHYSICS, 128 (21), 214104 (2008). 
 Ab initio molecular dynamics using hybrid density functionals.
 http://dx.doi.org/10.1063/1.2931945


 Frigo, M; Johnson, SG. 
 PROCEEDINGS OF THE IEEE, 93 (2), 216-231 (2005). 
 The design and implementation of FFTW3.
 http://dx.doi.org/10.1109/JPROC.2004.840301


 Lippert, G; Hutter, J; Parrinello, M. 
 THEORETICAL CHEMISTRY ACCOUNTS, 103 (2), 124-140 (1999). 
 The Gaussian and augmented-plane-wave density functional method for ab
 initio molecular dynamics simulations.
 http://dx.doi.org/10.1007/s002140050523


 Krack, M; Parrinello, M. 
 PHYSICAL CHEMISTRY CHEMICAL PHYSICS, 2 (10), 2105-2112 (2000). 
 All-electron ab-initio molecular dynamics.
 http://dx.doi.org/10.1039/b001167n


 Martyna, GJ; Tuckerman, ME. 
 JOURNAL OF CHEMICAL PHYSICS, 110 (6), 2810-2821 (1999). 
 A reciprocal space based method for treating long range interactions in
 ab initio and force-field-based calculations in clusters.
 http://dx.doi.org/10.1063/1.477923


 -------------------------------------------------------------------------------
 -                                                                             -
 -                                T I M I N G                                  -
 -                                                                             -
 -------------------------------------------------------------------------------
 SUBROUTINE                       CALLS  ASD         SELF TIME        TOTAL TIME
                                MAXIMUM       AVERAGE  MAXIMUM  AVERAGE  MAXIMUM
 CP2K                                 1  1.0    0.042    0.054   14.831   14.832
 qs_energies                          2  2.0    0.000    0.000   11.418   11.419
 scf_env_do_scf                       2  3.0    0.000    0.000   10.683   10.685
 scf_env_do_scf_inner_loop           16  4.0    0.001    0.001   10.683   10.685
 pw_transfer                        478  8.6    0.021    0.023    9.028    9.064
 fft_wrap_pw1pw2                    394  9.7    0.003    0.003    8.832    8.865
 fft_wrap_pw1pw2_140                164 10.4    0.585    0.590    7.980    8.052
 qs_ks_update_qs_env                 20  4.4    0.001    0.001    7.323    7.324
 rebuild_ks_matrix                   20  5.4    0.000    0.000    7.321    7.322
 qs_ks_build_kohn_sham_matrix        20  6.4    0.007    0.008    7.321    7.322
 fft3d_ps                           394 11.7    4.880    4.976    6.783    6.809
 qs_rho_update_rho                   22  4.5    0.000    0.000    6.177    6.177
 calculate_rho_elec                  44  5.5    0.097    0.103    6.175    6.175
 density_rs2pw                       44  6.5    0.002    0.002    5.856    5.879
 rs_pw_transfer                     358  8.9    0.004    0.004    2.761    2.773
 sum_up_and_integrate                16  8.0    0.000    0.000    2.609    2.610
 integrate_v_rspace                  32  9.0    0.005    0.009    2.608    2.610
 potential_pw2rs                     32 10.0    0.004    0.004    2.600    2.603
 prepare_gapw_den                    28  6.7    0.004    0.005    2.057    2.066
 put_rho0_on_grid                    28  7.7    0.058    0.059    2.010    2.019
 rs_pw_transfer_RS2PW_140            74  8.9    1.008    1.015    1.286    1.302
 yz_to_x                            238 12.1    0.832    0.838    1.135    1.173
 rs_pw_transfer_PW2RS_140            56 10.8    0.762    0.776    1.139    1.144
 pw_gather_p                        238 11.1    0.902    0.922    0.902    0.922
 qs_init_subsys                       2  2.0    0.002    0.002    0.918    0.918
 qs_env_setup                         2  3.0    0.000    0.000    0.909    0.910
 qs_env_rebuild_pw_env                4  3.5    0.000    0.000    0.908    0.909
 pw_env_rebuild                       2  5.0    0.001    0.001    0.908    0.908
 pw_poisson_solve                    28  6.7    0.316    0.320    0.899    0.901
 pw_grid_setup                       10  6.0    0.001    0.001    0.895    0.896
 pw_grid_setup_internal              10  7.0    0.025    0.025    0.894    0.894
 x_to_yz                            156 13.7    0.562    0.578    0.761    0.817
 pw_grid_sort                        10  8.0    0.498    0.511    0.733    0.760
 init_scf_run                         2  3.0    0.000    0.000    0.582    0.582
 scf_env_initial_rho_setup            2  4.0    0.000    0.000    0.580    0.580
 mp_alltoall_z22v                   394 13.7    0.502    0.572    0.502    0.572
 fft_wrap_pw1pw2_50                  76 10.9    0.041    0.047    0.495    0.529
 mp_waitany                        1560 10.7    0.464    0.509    0.464    0.509
 integrate_vhg0_rspace               20  7.4    0.001    0.002    0.494    0.497
 pw_scatter_p                       156 12.7    0.491    0.494    0.491    0.494
 rs_grid_zero                       282  7.9    0.473    0.477    0.473    0.477
 pw_poisson_rebuild                  28  7.7    0.005    0.006    0.427    0.430
 MTin_create_screen_fn                2 10.0    0.017    0.017    0.421    0.425
 pw_copy                            258  9.8    0.319    0.324    0.319    0.324
 -------------------------------------------------------------------------------

 The number of warnings for this run is : 1
 
 -------------------------------------------------------------------------------
  **** **** ******  **  PROGRAM ENDED AT                 2019-07-25 10:55:37.023
 ***** ** ***  *** **   PROGRAM RAN ON            cpn-p28-36.cbls.ccr.buffalo.ed
 **    ****   ******    PROGRAM RAN BY                                  pavankum
 ***** **    ** ** **   PROGRAM PROCESS ID                                 76281
  **** **  *******  **  PROGRAM STOPPED IN /projects/academic/mdupuis2/pavan/VAB
                                           _calculation/results_for_paper/1.He2+
                                           /r_6
