 DBCSR| Multiplication driver                                               BLAS
 DBCSR| Multrec recursion limit                                              512
 DBCSR| Multiplication stack size                                           1000
 DBCSR| Maximum elements for images                                    UNLIMITED
 DBCSR| Multiplicative factor virtual images                                   1
 DBCSR| Multiplication size stacks                                             3
 DBCSR| Number of 3D layers                                               SINGLE
 DBCSR| Use MPI memory allocation                                              T
 DBCSR| Use RMA algorithm                                                      F
 DBCSR| Use Communication thread                                               T
 DBCSR| Communication thread load                                             87


  **** **** ******  **  PROGRAM STARTED AT               2019-07-10 22:51:18.645
 ***** ** ***  *** **   PROGRAM STARTED ON        cpn-u26-24.cbls.ccr.buffalo.ed
 **    ****   ******    PROGRAM STARTED BY                              pavankum
 ***** **    ** ** **   PROGRAM PROCESS ID                                  9692
  **** **  *******  **  PROGRAM STARTED IN /projects/academic/mdupuis2/pavan/VAB
                                           _calculation/23.Fe_clust_paper/7units
                                           _dzv/GPW/largecell/gopt_state0

 CP2K| version string:                                          CP2K version 5.1
 CP2K| source code revision number:                                    svn:18091
 CP2K| cp2kflags: libint fftw3 libxc parallel mpi3 scalapack has_no_shared_glibc
 CP2K|             max_contr=4
 CP2K| is freely available from                            https://www.cp2k.org/
 CP2K| Program compiled at                          Wed Mar 21 12:31:25 EDT 2018
 CP2K| Program compiled on                       srv-k07-14.cbls.ccr.buffalo.edu
 CP2K| Program compiled for                                                local
 CP2K| Data directory path    /projects/academic/mdupuis2/pavan/cp2k/cp2k-5.1/da
 CP2K| Input file name                                                 input.inp

 GLOBAL| Force Environment number                                              1
 GLOBAL| Basis set file name            /projects/academic/mdupuis2/pavan/BASIS_
 GLOBAL| Potential file name            /projects/academic/mdupuis2/pavan/POTENT
 GLOBAL| MM Potential file name                                     MM_POTENTIAL
 GLOBAL| Coordinate file name                                      elong_geo.xyz
 GLOBAL| Method name                                                        CP2K
 GLOBAL| Project name                                                      p_fe_
 GLOBAL| Preferred FFT library                                             FFTW3
 GLOBAL| Preferred diagonalization lib.                                       SL
 GLOBAL| Run type                                                        GEO_OPT
 GLOBAL| All-to-all communication in single precision                          F
 GLOBAL| FFTs using library dependent lengths                                  T
 GLOBAL| Global print level                                               MEDIUM
 GLOBAL| Total number of message passing processes                           144
 GLOBAL| Number of threads for this process                                    1
 GLOBAL| This output is from process                                           0
 GLOBAL| CPU model name :  Intel(R) Xeon(R) Gold 6126 CPU @ 2.60GHz

 MEMORY| system memory details [Kb]
 MEMORY|                        rank 0           min           max       average
 MEMORY| MemTotal            196307064     196307064     196307064     196307064
 MEMORY| MemFree             101934812      87291376     109866016     100172154
 MEMORY| Buffers                495452        457300        495452        472362
 MEMORY| Cached               87586408      79832324     102090664      89329922
 MEMORY| Slab                   989072        891752        989072        937774
 MEMORY| SReclaimable           660516        566716        660516        612222
 MEMORY| MemLikelyFree       190677188     190454436     190825432     190586662


 *** Fundamental physical constants (SI units) ***

 *** Literature: B. J. Mohr and B. N. Taylor,
 ***             CODATA recommended values of the fundamental physical
 ***             constants: 2006, Web Version 5.1
 ***             http://physics.nist.gov/constants

 Speed of light in vacuum [m/s]                             2.99792458000000E+08
 Magnetic constant or permeability of vacuum [N/A**2]       1.25663706143592E-06
 Electric constant or permittivity of vacuum [F/m]          8.85418781762039E-12
 Planck constant (h) [J*s]                                  6.62606896000000E-34
 Planck constant (h-bar) [J*s]                              1.05457162825177E-34
 Elementary charge [C]                                      1.60217648700000E-19
 Electron mass [kg]                                         9.10938215000000E-31
 Electron g factor [ ]                                     -2.00231930436220E+00
 Proton mass [kg]                                           1.67262163700000E-27
 Fine-structure constant                                    7.29735253760000E-03
 Rydberg constant [1/m]                                     1.09737315685270E+07
 Avogadro constant [1/mol]                                  6.02214179000000E+23
 Boltzmann constant [J/K]                                   1.38065040000000E-23
 Atomic mass unit [kg]                                      1.66053878200000E-27
 Bohr radius [m]                                            5.29177208590000E-11

 *** Conversion factors ***

 [u] -> [a.u.]                                              1.82288848426455E+03
 [Angstrom] -> [Bohr] = [a.u.]                              1.88972613288564E+00
 [a.u.] = [Bohr] -> [Angstrom]                              5.29177208590000E-01
 [a.u.] -> [s]                                              2.41888432650478E-17
 [a.u.] -> [fs]                                             2.41888432650478E-02
 [a.u.] -> [J]                                              4.35974393937059E-18
 [a.u.] -> [N]                                              8.23872205491840E-08
 [a.u.] -> [K]                                              3.15774647902944E+05
 [a.u.] -> [kJ/mol]                                         2.62549961709828E+03
 [a.u.] -> [kcal/mol]                                       6.27509468713739E+02
 [a.u.] -> [Pa]                                             2.94210107994716E+13
 [a.u.] -> [bar]                                            2.94210107994716E+08
 [a.u.] -> [atm]                                            2.90362800883016E+08
 [a.u.] -> [eV]                                             2.72113838565563E+01
 [a.u.] -> [Hz]                                             6.57968392072181E+15
 [a.u.] -> [1/cm] (wave numbers)                            2.19474631370540E+05
 [a.u./Bohr**2] -> [1/cm]                                   5.14048714338585E+03
 

 CELL_TOP| Volume [angstrom^3]:                                        26196.625
 CELL_TOP| Vector a [angstrom    21.385     0.000     0.000    |a| =      21.385
 CELL_TOP| Vector b [angstrom     0.000    35.000     0.000    |b| =      35.000
 CELL_TOP| Vector c [angstrom     0.000     0.000    35.000    |c| =      35.000
 CELL_TOP| Angle (b,c), alpha [degree]:                                   90.000
 CELL_TOP| Angle (a,c), beta  [degree]:                                   90.000
 CELL_TOP| Angle (a,b), gamma [degree]:                                   90.000
 CELL_TOP| Numerically orthorhombic:                                         YES

 CELL| Volume [angstrom^3]:                                            26196.625
 CELL| Vector a [angstrom]:      21.385     0.000     0.000    |a| =      21.385
 CELL| Vector b [angstrom]:       0.000    35.000     0.000    |b| =      35.000
 CELL| Vector c [angstrom]:       0.000     0.000    35.000    |c| =      35.000
 CELL| Angle (b,c), alpha [degree]:                                       90.000
 CELL| Angle (a,c), beta  [degree]:                                       90.000
 CELL| Angle (a,b), gamma [degree]:                                       90.000
 CELL| Numerically orthorhombic:                                             YES

 CELL_REF| Volume [angstrom^3]:                                        26196.625
 CELL_REF| Vector a [angstrom    21.385     0.000     0.000    |a| =      21.385
 CELL_REF| Vector b [angstrom     0.000    35.000     0.000    |b| =      35.000
 CELL_REF| Vector c [angstrom     0.000     0.000    35.000    |c| =      35.000
 CELL_REF| Angle (b,c), alpha [degree]:                                   90.000
 CELL_REF| Angle (a,c), beta  [degree]:                                   90.000
 CELL_REF| Angle (a,b), gamma [degree]:                                   90.000
 CELL_REF| Numerically orthorhombic:                                         YES

 *******************************************************************************
 *******************************************************************************
 **                                                                           **
 **     #####                         ##              ##                      **
 **    ##   ##            ##          ##              ##                      **
 **   ##     ##                       ##            ######                    **
 **   ##     ##  ##   ##  ##   #####  ##  ##   ####   ##    #####    #####    **
 **   ##     ##  ##   ##  ##  ##      ## ##   ##      ##   ##   ##  ##   ##   **
 **   ##  ## ##  ##   ##  ##  ##      ####     ###    ##   ######   ######    **
 **    ##  ###   ##   ##  ##  ##      ## ##      ##   ##   ##       ##        **
 **     #######   #####   ##   #####  ##  ##  ####    ##    #####   ##        **
 **           ##                                                    ##        **
 **                                                                           **
 **                                                ... make the atoms dance   **
 **                                                                           **
 **            Copyright (C) by CP2K developers group (2000 - 2017)           **
 **                                                                           **
 *******************************************************************************

 DFT| Spin unrestricted (spin-polarized) Kohn-Sham calculation               UKS
 DFT| Multiplicity                                                            35
 DFT| Number of spin states                                                    2
 DFT| Charge                                                                   6
 DFT| Self-interaction correction (SIC)                                       NO
 DFT| Cutoffs: density                                              1.000000E-10
 DFT|          gradient                                             1.000000E-10
 DFT|          tau                                                  1.000000E-10
 DFT|          cutoff_smoothing_range                               0.000000E+00
 DFT| XC density smoothing                                                  NONE
 DFT| XC derivatives                                                          PW
 FUNCTIONAL| NO EXCHANGE-CORRELATION FUNCTIONAL USED.

 QS| Method:                                                                 GPW
 QS| Density plane wave grid type                        NON-SPHERICAL FULLSPACE
 QS| Number of grid levels:                                                    5
 QS| Density cutoff [a.u.]:                                                250.0
 QS| Multi grid cutoff [a.u.]: 1) grid level                               250.0
 QS|                           2) grid level                                83.3
 QS|                           3) grid level                                27.8
 QS|                           4) grid level                                 9.3
 QS|                           5) grid level                                 3.1
 QS| Grid level progression factor:                                          3.0
 QS| Relative density cutoff [a.u.]:                                        30.0
 QS| Consistent realspace mapping and integration 
 QS| Interaction thresholds: eps_pgf_orb:                                1.0E-10
 QS|                         eps_filter_matrix:                          0.0E+00
 QS|                         eps_core_charge:                            1.0E-14
 QS|                         eps_rho_gspace:                             1.0E-12
 QS|                         eps_rho_rspace:                             1.0E-12
 QS|                         eps_gvg_rspace:                             1.0E-06
 QS|                         eps_ppl:                                    1.0E-02
 QS|                         eps_ppnl:                                   1.0E-08


 ATOMIC KIND INFORMATION

  1. Atomic kind: Fe_three                              Number of atoms:       6

     Orbital Basis Set                                                   mod-DZV

       Number of orbital shell sets:                                           1
       Number of orbital shells:                                               7
       Number of primitive Cartesian functions:                                6
       Number of Cartesian basis functions:                                   21
       Number of spherical basis functions:                                   19
       Norm type:                                                              2

       Normalised Cartesian orbitals:

                        Set   Shell   Orbital            Exponent    Coefficient

                          1       1    2s                8.424366      -0.545589
                                                         4.825220      -0.832336
                                                         2.198939       0.958990
                                                         0.891661       0.416271
                                                         0.316231       0.012631
                                                         0.103474      -0.013505

                          1       2    3s                8.424366      -0.106056
                                                         4.825220      -0.104587
                                                         2.198939       0.052318
                                                         0.891661      -0.169042
                                                         0.316231       0.061854
                                                         0.103474       0.122891

                          1       3    4s                8.424366      -0.333477
                                                         4.825220      -0.289267
                                                         2.198939      -0.125861
                                                         0.891661      -1.004000
                                                         0.316231       0.780774
                                                         0.103474      -0.187846

                          1       4    3px               8.424366      -1.658234
                                                         4.825220       1.618912
                                                         2.198939       1.969078
                                                         0.891661       0.523780
                                                         0.316231       0.024574
                                                         0.103474      -0.000798
                          1       4    3py               8.424366      -1.658234
                                                         4.825220       1.618912
                                                         2.198939       1.969078
                                                         0.891661       0.523780
                                                         0.316231       0.024574
                                                         0.103474      -0.000798
                          1       4    3pz               8.424366      -1.658234
                                                         4.825220       1.618912
                                                         2.198939       1.969078
                                                         0.891661       0.523780
                                                         0.316231       0.024574
                                                         0.103474      -0.000798

                          1       5    4px               8.424366      -0.105249
                                                         4.825220      -0.126123
                                                         2.198939      -0.349657
                                                         0.891661      -0.133470
                                                         0.316231       0.170554
                                                         0.103474       0.054381
                          1       5    4py               8.424366      -0.105249
                                                         4.825220      -0.126123
                                                         2.198939      -0.349657
                                                         0.891661      -0.133470
                                                         0.316231       0.170554
                                                         0.103474       0.054381
                          1       5    4pz               8.424366      -0.105249
                                                         4.825220      -0.126123
                                                         2.198939      -0.349657
                                                         0.891661      -0.133470
                                                         0.316231       0.170554
                                                         0.103474       0.054381

                          1       6    4dx2              8.424366       7.918298
                                                         4.825220       5.112663
                                                         2.198939       2.118663
                                                         0.891661       0.465004
                                                         0.316231       0.065856
                                                         0.103474       0.002769
                          1       6    4dxy              8.424366      13.714895
                                                         4.825220       8.855393
                                                         2.198939       3.669632
                                                         0.891661       0.805411
                                                         0.316231       0.114066
                                                         0.103474       0.004796
                          1       6    4dxz              8.424366      13.714895
                                                         4.825220       8.855393
                                                         2.198939       3.669632
                                                         0.891661       0.805411
                                                         0.316231       0.114066
                                                         0.103474       0.004796
                          1       6    4dy2              8.424366       7.918298
                                                         4.825220       5.112663
                                                         2.198939       2.118663
                                                         0.891661       0.465004
                                                         0.316231       0.065856
                                                         0.103474       0.002769
                          1       6    4dyz              8.424366      13.714895
                                                         4.825220       8.855393
                                                         2.198939       3.669632
                                                         0.891661       0.805411
                                                         0.316231       0.114066
                                                         0.103474       0.004796
                          1       6    4dz2              8.424366       7.918298
                                                         4.825220       5.112663
                                                         2.198939       2.118663
                                                         0.891661       0.465004
                                                         0.316231       0.065856
                                                         0.103474       0.002769

                          1       7    5dx2              8.424366      -4.223614
                                                         4.825220      -1.970584
                                                         2.198939      -1.543490
                                                         0.891661      -0.041381
                                                         0.316231       0.082821
                                                         0.103474       0.021964
                          1       7    5dxy              8.424366      -7.315513
                                                         4.825220      -3.413151
                                                         2.198939      -2.673404
                                                         0.891661      -0.071673
                                                         0.316231       0.143450
                                                         0.103474       0.038042
                          1       7    5dxz              8.424366      -7.315513
                                                         4.825220      -3.413151
                                                         2.198939      -2.673404
                                                         0.891661      -0.071673
                                                         0.316231       0.143450
                                                         0.103474       0.038042
                          1       7    5dy2              8.424366      -4.223614
                                                         4.825220      -1.970584
                                                         2.198939      -1.543490
                                                         0.891661      -0.041381
                                                         0.316231       0.082821
                                                         0.103474       0.021964
                          1       7    5dyz              8.424366      -7.315513
                                                         4.825220      -3.413151
                                                         2.198939      -2.673404
                                                         0.891661      -0.071673
                                                         0.316231       0.143450
                                                         0.103474       0.038042
                          1       7    5dz2              8.424366      -4.223614
                                                         4.825220      -1.970584
                                                         2.198939      -1.543490
                                                         0.891661      -0.041381
                                                         0.316231       0.082821
                                                         0.103474       0.021964

     GTH Potential information for                                  GTH-BLYP-q16

       Description:                       Goedecker-Teter-Hutter pseudopotential
                                           Goedecker et al., PRB 54, 1703 (1996)
                                          Hartwigsen et al., PRB 58, 3641 (1998)
                                                      Krack, TCA 114, 145 (2005)

       Gaussian exponent of the core charge distribution:               3.858025
       Electronic configuration (s p d ...):                           4   6   6

       Parameters of the local part of the GTH pseudopotential:

                          rloc        C1          C2          C3          C4
                        0.360000    7.011025   -0.222747

       Parameters of the non-local part of the GTH pseudopotential:

                   l      r(l)      h(i,j,l)

                   0    0.276205    0.611496    7.992357
                                    7.992357  -10.318089
                   1    0.247130   -8.710556    8.684169
                                    8.684169  -10.275248
                   2    0.223534  -12.411504

  2. Atomic kind: Fe_two                                Number of atoms:       1

     Orbital Basis Set                                                   mod-DZV

       Number of orbital shell sets:                                           1
       Number of orbital shells:                                               7
       Number of primitive Cartesian functions:                                6
       Number of Cartesian basis functions:                                   21
       Number of spherical basis functions:                                   19
       Norm type:                                                              2

       Normalised Cartesian orbitals:

                        Set   Shell   Orbital            Exponent    Coefficient

                          1       1    2s                8.424366      -0.545589
                                                         4.825220      -0.832336
                                                         2.198939       0.958990
                                                         0.891661       0.416271
                                                         0.316231       0.012631
                                                         0.103474      -0.013505

                          1       2    3s                8.424366      -0.106056
                                                         4.825220      -0.104587
                                                         2.198939       0.052318
                                                         0.891661      -0.169042
                                                         0.316231       0.061854
                                                         0.103474       0.122891

                          1       3    4s                8.424366      -0.333477
                                                         4.825220      -0.289267
                                                         2.198939      -0.125861
                                                         0.891661      -1.004000
                                                         0.316231       0.780774
                                                         0.103474      -0.187846

                          1       4    3px               8.424366      -1.658234
                                                         4.825220       1.618912
                                                         2.198939       1.969078
                                                         0.891661       0.523780
                                                         0.316231       0.024574
                                                         0.103474      -0.000798
                          1       4    3py               8.424366      -1.658234
                                                         4.825220       1.618912
                                                         2.198939       1.969078
                                                         0.891661       0.523780
                                                         0.316231       0.024574
                                                         0.103474      -0.000798
                          1       4    3pz               8.424366      -1.658234
                                                         4.825220       1.618912
                                                         2.198939       1.969078
                                                         0.891661       0.523780
                                                         0.316231       0.024574
                                                         0.103474      -0.000798

                          1       5    4px               8.424366      -0.105249
                                                         4.825220      -0.126123
                                                         2.198939      -0.349657
                                                         0.891661      -0.133470
                                                         0.316231       0.170554
                                                         0.103474       0.054381
                          1       5    4py               8.424366      -0.105249
                                                         4.825220      -0.126123
                                                         2.198939      -0.349657
                                                         0.891661      -0.133470
                                                         0.316231       0.170554
                                                         0.103474       0.054381
                          1       5    4pz               8.424366      -0.105249
                                                         4.825220      -0.126123
                                                         2.198939      -0.349657
                                                         0.891661      -0.133470
                                                         0.316231       0.170554
                                                         0.103474       0.054381

                          1       6    4dx2              8.424366       7.918298
                                                         4.825220       5.112663
                                                         2.198939       2.118663
                                                         0.891661       0.465004
                                                         0.316231       0.065856
                                                         0.103474       0.002769
                          1       6    4dxy              8.424366      13.714895
                                                         4.825220       8.855393
                                                         2.198939       3.669632
                                                         0.891661       0.805411
                                                         0.316231       0.114066
                                                         0.103474       0.004796
                          1       6    4dxz              8.424366      13.714895
                                                         4.825220       8.855393
                                                         2.198939       3.669632
                                                         0.891661       0.805411
                                                         0.316231       0.114066
                                                         0.103474       0.004796
                          1       6    4dy2              8.424366       7.918298
                                                         4.825220       5.112663
                                                         2.198939       2.118663
                                                         0.891661       0.465004
                                                         0.316231       0.065856
                                                         0.103474       0.002769
                          1       6    4dyz              8.424366      13.714895
                                                         4.825220       8.855393
                                                         2.198939       3.669632
                                                         0.891661       0.805411
                                                         0.316231       0.114066
                                                         0.103474       0.004796
                          1       6    4dz2              8.424366       7.918298
                                                         4.825220       5.112663
                                                         2.198939       2.118663
                                                         0.891661       0.465004
                                                         0.316231       0.065856
                                                         0.103474       0.002769

                          1       7    5dx2              8.424366      -4.223614
                                                         4.825220      -1.970584
                                                         2.198939      -1.543490
                                                         0.891661      -0.041381
                                                         0.316231       0.082821
                                                         0.103474       0.021964
                          1       7    5dxy              8.424366      -7.315513
                                                         4.825220      -3.413151
                                                         2.198939      -2.673404
                                                         0.891661      -0.071673
                                                         0.316231       0.143450
                                                         0.103474       0.038042
                          1       7    5dxz              8.424366      -7.315513
                                                         4.825220      -3.413151
                                                         2.198939      -2.673404
                                                         0.891661      -0.071673
                                                         0.316231       0.143450
                                                         0.103474       0.038042
                          1       7    5dy2              8.424366      -4.223614
                                                         4.825220      -1.970584
                                                         2.198939      -1.543490
                                                         0.891661      -0.041381
                                                         0.316231       0.082821
                                                         0.103474       0.021964
                          1       7    5dyz              8.424366      -7.315513
                                                         4.825220      -3.413151
                                                         2.198939      -2.673404
                                                         0.891661      -0.071673
                                                         0.316231       0.143450
                                                         0.103474       0.038042
                          1       7    5dz2              8.424366      -4.223614
                                                         4.825220      -1.970584
                                                         2.198939      -1.543490
                                                         0.891661      -0.041381
                                                         0.316231       0.082821
                                                         0.103474       0.021964

     GTH Potential information for                                  GTH-BLYP-q16

       Description:                       Goedecker-Teter-Hutter pseudopotential
                                           Goedecker et al., PRB 54, 1703 (1996)
                                          Hartwigsen et al., PRB 58, 3641 (1998)
                                                      Krack, TCA 114, 145 (2005)

       Gaussian exponent of the core charge distribution:               3.858025
       Electronic configuration (s p d ...):                           4   6   6

       Parameters of the local part of the GTH pseudopotential:

                          rloc        C1          C2          C3          C4
                        0.360000    7.011025   -0.222747

       Parameters of the non-local part of the GTH pseudopotential:

                   l      r(l)      h(i,j,l)

                   0    0.276205    0.611496    7.992357
                                    7.992357  -10.318089
                   1    0.247130   -8.710556    8.684169
                                    8.684169  -10.275248
                   2    0.223534  -12.411504

  3. Atomic kind: O                                     Number of atoms:      28

     Orbital Basis Set                                                   mod-DZV

       Number of orbital shell sets:                                           1
       Number of orbital shells:                                               4
       Number of primitive Cartesian functions:                                5
       Number of Cartesian basis functions:                                    8
       Number of spherical basis functions:                                    8
       Norm type:                                                              2

       Normalised Cartesian orbitals:

                        Set   Shell   Orbital            Exponent    Coefficient

                          1       1    2s               10.389228       0.396646
                                                         3.849621       0.208811
                                                         1.388401      -0.301641
                                                         0.496955      -0.274061
                                                         0.162492      -0.033677

                          1       2    3s               10.389228       0.303673
                                                         3.849621       0.240943
                                                         1.388401      -0.313066
                                                         0.496955      -0.043055
                                                         0.162492       0.213991

                          1       3    3px              10.389228      -1.530415
                                                         3.849621      -1.371928
                                                         1.388401      -0.761951
                                                         0.496955      -0.253695
                                                         0.162492      -0.035541
                          1       3    3py              10.389228      -1.530415
                                                         3.849621      -1.371928
                                                         1.388401      -0.761951
                                                         0.496955      -0.253695
                                                         0.162492      -0.035541
                          1       3    3pz              10.389228      -1.530415
                                                         3.849621      -1.371928
                                                         1.388401      -0.761951
                                                         0.496955      -0.253695
                                                         0.162492      -0.035541

                          1       4    4px              10.389228      -0.565392
                                                         3.849621      -0.038231
                                                         1.388401      -0.382373
                                                         0.496955       0.179070
                                                         0.162492       0.122714
                          1       4    4py              10.389228      -0.565392
                                                         3.849621      -0.038231
                                                         1.388401      -0.382373
                                                         0.496955       0.179070
                                                         0.162492       0.122714
                          1       4    4pz              10.389228      -0.565392
                                                         3.849621      -0.038231
                                                         1.388401      -0.382373
                                                         0.496955       0.179070
                                                         0.162492       0.122714

     GTH Potential information for                                   GTH-BLYP-q6

       Description:                       Goedecker-Teter-Hutter pseudopotential
                                           Goedecker et al., PRB 54, 1703 (1996)
                                          Hartwigsen et al., PRB 58, 3641 (1998)
                                                      Krack, TCA 114, 145 (2005)

       Gaussian exponent of the core charge distribution:               8.438331
       Electronic configuration (s p d ...):                               2   4

       Parameters of the local part of the GTH pseudopotential:

                          rloc        C1          C2          C3          C4
                        0.243420  -16.991892    2.566142

       Parameters of the non-local part of the GTH pseudopotential:

                   l      r(l)      h(i,j,l)

                   0    0.220831   18.388851
                   1    0.217201

  4. Atomic kind: H                                     Number of atoms:      42

     Orbital Basis Set                                                   mod-DZV

       Number of orbital shell sets:                                           1
       Number of orbital shells:                                               2
       Number of primitive Cartesian functions:                                5
       Number of Cartesian basis functions:                                    2
       Number of spherical basis functions:                                    2
       Norm type:                                                              2

       Normalised Cartesian orbitals:

                        Set   Shell   Orbital            Exponent    Coefficient

                          1       1    2s               10.068468      -0.133023
                                                         2.680223      -0.177618
                                                         0.791502      -0.258419
                                                         0.239116      -0.107525
                                                         0.082193      -0.014019

                          1       2    3s               10.068468       0.344673
                                                         2.680223       1.819821
                                                         0.791502      -0.999069
                                                         0.239116       0.017430
                                                         0.082193       0.082660

     GTH Potential information for                                   GTH-BLYP-q1

       Description:                       Goedecker-Teter-Hutter pseudopotential
                                           Goedecker et al., PRB 54, 1703 (1996)
                                          Hartwigsen et al., PRB 58, 3641 (1998)
                                                      Krack, TCA 114, 145 (2005)

       Gaussian exponent of the core charge distribution:              12.500000
       Electronic configuration (s p d ...):                                   1

       Parameters of the local part of the GTH pseudopotential:

                          rloc        C1          C2          C3          C4
                        0.200000   -4.195961    0.730498


 MOLECULE KIND INFORMATION


 All atoms are their own molecule, skipping detailed information


 TOTAL NUMBERS AND MAXIMUM NUMBERS

  Total number of            - Atomic kinds:                                   4
                             - Atoms:                                         77
                             - Shell sets:                                    77
                             - Shells:                                       245
                             - Primitive Cartesian functions:                392
                             - Cartesian basis functions:                    455
                             - Spherical basis functions:                    441

  Maximum angular momentum of- Orbital basis functions:                        2
                             - Local part of the GTH pseudopotential:          2
                             - Non-local part of the GTH pseudopotential:      3


 MODULE QUICKSTEP:  ATOMIC COORDINATES IN angstrom

  Atom  Kind  Element       X           Y           Z          Z(eff)       Mass

       1     1 Fe  26   18.340693    0.000000    0.000001     16.00      55.8450
       2     1 Fe  26   15.287231    0.000000    0.000001     16.00      55.8450
       3     1 Fe  26   12.231430    0.000000    0.000003     16.00      55.8450
       4     1 Fe  26    9.156119   -0.000000    0.000005     16.00      55.8450
       5     2 Fe  26    6.124077   -0.000000    0.000004     16.00      55.8450
       6     1 Fe  26    3.089503   -0.000000    0.000002     16.00      55.8450
       7     1 Fe  26    0.012253   -0.000000    0.000002     16.00      55.8450
       8     3 O    8   18.338004    0.000002    2.131690      6.00      15.9994
       9     3 O    8   18.338004   -0.000001   -2.131688      6.00      15.9994
      10     3 O    8   19.856972   -1.262309    0.000000      6.00      15.9994
      11     3 O    8   19.856973    1.262309    0.000002      6.00      15.9994
      12     3 O    8   15.275885    0.000005    2.132348      6.00      15.9994
      13     3 O    8   15.275884   -0.000005   -2.132346      6.00      15.9994
      14     3 O    8   16.813333   -1.262676    0.000008      6.00      15.9994
      15     3 O    8   16.813333    1.262676   -0.000007      6.00      15.9994
      16     3 O    8   12.229699   -0.000017    2.143469      6.00      15.9994
      17     3 O    8   12.229697    0.000018   -2.143462      6.00      15.9994
      18     3 O    8   13.770392   -1.262403    0.000002      6.00      15.9994
      19     3 O    8   13.770393    1.262403    0.000002      6.00      15.9994
      20     3 O    8    9.213695   -0.000007    2.167274      6.00      15.9994
      21     3 O    8    9.213694    0.000007   -2.167264      6.00      15.9994
      22     3 O    8   10.738065   -1.258358   -0.000009      6.00      15.9994
      23     3 O    8   10.738064    1.258358    0.000017      6.00      15.9994
      24     3 O    8    6.131929   -0.000001    2.283968      6.00      15.9994
      25     3 O    8    6.131931    0.000001   -2.283961      6.00      15.9994
      26     3 O    8    7.776123   -1.324617    0.000001      6.00      15.9994
      27     3 O    8    7.776123    1.324616    0.000008      6.00      15.9994
      28     3 O    8    3.025306    0.000003    2.167475      6.00      15.9994
      29     3 O    8    3.025307   -0.000004   -2.167472      6.00      15.9994
      30     3 O    8    4.470694   -1.323475    0.000003      6.00      15.9994
      31     3 O    8    4.470694    1.323474    0.000001      6.00      15.9994
      32     3 O    8    0.001040    0.000003    2.142292      6.00      15.9994
      33     3 O    8    0.001040   -0.000004   -2.142289      6.00      15.9994
      34     3 O    8    1.506268   -1.257845    0.000003      6.00      15.9994
      35     3 O    8    1.506269    1.257844   -0.000000      6.00      15.9994
      36     4 H    1   18.388376   -0.796974   -2.673082      1.00       1.0079
      37     4 H    1   18.388337    0.796973   -2.673084      1.00       1.0079
      38     4 H    1   18.388343   -0.796972    2.673085      1.00       1.0079
      39     4 H    1   18.388369    0.796975    2.673084      1.00       1.0079
      40     4 H    1   19.870765   -2.222378    0.000003      1.00       1.0079
      41     4 H    1   19.870766    2.222378   -0.000000      1.00       1.0079
      42     4 H    1   15.195744   -0.796739   -2.670660      1.00       1.0079
      43     4 H    1   15.195772    0.796728   -2.670665      1.00       1.0079
      44     4 H    1   15.195777   -0.796729    2.670667      1.00       1.0079
      45     4 H    1   15.195742    0.796739    2.670662      1.00       1.0079
      46     4 H    1   16.813034   -2.222992    0.000003      1.00       1.0079
      47     4 H    1   16.813034    2.222992   -0.000002      1.00       1.0079
      48     4 H    1   12.038308   -0.794997   -2.655897      1.00       1.0079
      49     4 H    1   12.038403    0.795062   -2.655889      1.00       1.0079
      50     4 H    1   12.038405   -0.795061    2.655896      1.00       1.0079
      51     4 H    1   12.038312    0.794998    2.655904      1.00       1.0079
      52     4 H    1   13.755866   -2.222468   -0.000006      1.00       1.0079
      53     4 H    1   13.755867    2.222469    0.000009      1.00       1.0079
      54     4 H    1    8.981306   -0.796753   -2.658316      1.00       1.0079
      55     4 H    1    8.981317    0.796772   -2.658313      1.00       1.0079
      56     4 H    1    8.981319   -0.796773    2.658323      1.00       1.0079
      57     4 H    1    8.981309    0.796753    2.658327      1.00       1.0079
      58     4 H    1   10.695931   -2.216857   -0.000014      1.00       1.0079
      59     4 H    1   10.695930    2.216857    0.000022      1.00       1.0079
      60     4 H    1    6.107721   -0.799145   -2.821150      1.00       1.0079
      61     4 H    1    6.107716    0.799148   -2.821147      1.00       1.0079
      62     4 H    1    6.107717   -0.799148    2.821155      1.00       1.0079
      63     4 H    1    6.107720    0.799145    2.821156      1.00       1.0079
      64     4 H    1    7.740323   -2.280645    0.000001      1.00       1.0079
      65     4 H    1    7.740323    2.280644    0.000009      1.00       1.0079
      66     4 H    1    3.224121   -0.797926   -2.670829      1.00       1.0079
      67     4 H    1    3.224115    0.797916   -2.670833      1.00       1.0079
      68     4 H    1    3.224118   -0.797917    2.670835      1.00       1.0079
      69     4 H    1    3.224119    0.797925    2.670832      1.00       1.0079
      70     4 H    1    4.506492   -2.279523    0.000004      1.00       1.0079
      71     4 H    1    4.506492    2.279523   -0.000000      1.00       1.0079
      72     4 H    1    0.164146   -0.795877   -2.662778      1.00       1.0079
      73     4 H    1    0.164131    0.795869   -2.662782      1.00       1.0079
      74     4 H    1    0.164136   -0.795870    2.662785      1.00       1.0079
      75     4 H    1    0.164140    0.795876    2.662782      1.00       1.0079
      76     4 H    1    1.547762   -2.216359    0.000006      1.00       1.0079
      77     4 H    1    1.547762    2.216358   -0.000002      1.00       1.0079




 SCF PARAMETERS         Density guess:                                    ATOMIC
                        --------------------------------------------------------
                        max_scf:                                            1000
                        max_scf_history:                                       0
                        max_diis:                                              4
                        --------------------------------------------------------
                        eps_scf:                                        1.00E-06
                        eps_scf_history:                                0.00E+00
                        eps_diis:                                       1.00E-01
                        eps_eigval:                                     1.00E-05
                        --------------------------------------------------------
                        level_shift [a.u.]:                                 0.00
                        --------------------------------------------------------
                        Outer loop SCF in use 
                        No variables optimised in outer loop
                        eps_scf                                         1.00E-06
                        max_scf                                              500
                        No outer loop optimization
                        step_size                                       5.00E-01

 PW_GRID| Information for grid number                                          1
 PW_GRID| Grid distributed over                                   144 processors
 PW_GRID| Real space group dimensions                                   144    1
 PW_GRID| the grid is blocked:                                                NO
 PW_GRID| Cutoff [a.u.]                                                    250.0
 PW_GRID| spherical cutoff:                                                   NO
 PW_GRID|   Bounds   1           -144     143                Points:         288
 PW_GRID|   Bounds   2           -240     239                Points:         480
 PW_GRID|   Bounds   3           -240     239                Points:         480
 PW_GRID| Volume element (a.u.^3)  0.2664E-02     Volume (a.u.^3)    176783.5904
 PW_GRID| Grid span                                                    FULLSPACE
 PW_GRID|   Distribution                         Average         Max         Min
 PW_GRID|   G-Vectors                           460800.0      460800      460800
 PW_GRID|   G-Rays                                1600.0        1600        1600
 PW_GRID|   Real Space Points                   460800.0      460800      460800

 PW_GRID| Information for grid number                                          2
 PW_GRID| Grid distributed over                                   144 processors
 PW_GRID| Real space group dimensions                                   144    1
 PW_GRID| the grid is blocked:                                                NO
 PW_GRID| Cutoff [a.u.]                                                     83.3
 PW_GRID| spherical cutoff:                                                   NO
 PW_GRID|   Bounds   1            -84      83                Points:         168
 PW_GRID|   Bounds   2           -137     137                Points:         275
 PW_GRID|   Bounds   3           -137     137                Points:         275
 PW_GRID| Volume element (a.u.^3)  0.1391E-01     Volume (a.u.^3)    176783.5904
 PW_GRID| Grid span                                                    FULLSPACE
 PW_GRID|   Distribution                         Average         Max         Min
 PW_GRID|   G-Vectors                            88229.2       88368       88032
 PW_GRID|   G-Rays                                 525.2         526         524
 PW_GRID|   Real Space Points                    88229.2      151250       75625

 PW_GRID| Information for grid number                                          3
 PW_GRID| Grid distributed over                                   144 processors
 PW_GRID| Real space group dimensions                                    12   12
 PW_GRID| the grid is blocked:                                                NO
 PW_GRID| Cutoff [a.u.]                                                     27.8
 PW_GRID| spherical cutoff:                                                   NO
 PW_GRID|   Bounds   1            -48      47                Points:          96
 PW_GRID|   Bounds   2            -80      79                Points:         160
 PW_GRID|   Bounds   3            -80      79                Points:         160
 PW_GRID| Volume element (a.u.^3)  0.7193E-01     Volume (a.u.^3)    176783.5904
 PW_GRID| Grid span                                                    FULLSPACE
 PW_GRID|   Distribution                         Average         Max         Min
 PW_GRID|   G-Vectors                            17066.7       17280       16896
 PW_GRID|   G-Rays                                 177.8         180         176
 PW_GRID|   Real Space Points                    17066.7       17920       16640

 PW_GRID| Information for grid number                                          4
 PW_GRID| Grid distributed over                                   144 processors
 PW_GRID| Real space group dimensions                                    12   12
 PW_GRID| the grid is blocked:                                                NO
 PW_GRID| Cutoff [a.u.]                                                      9.3
 PW_GRID| spherical cutoff:                                                   NO
 PW_GRID|   Bounds   1            -27      27                Points:          55
 PW_GRID|   Bounds   2            -48      47                Points:          96
 PW_GRID|   Bounds   3            -48      47                Points:          96
 PW_GRID| Volume element (a.u.^3)  0.3488         Volume (a.u.^3)    176783.5904
 PW_GRID| Grid span                                                    FULLSPACE
 PW_GRID|   Distribution                         Average         Max         Min
 PW_GRID|   G-Vectors                             3520.0        3575        3465
 PW_GRID|   G-Rays                                  64.0          65          63
 PW_GRID|   Real Space Points                     3520.0        3840        3072

 PW_GRID| Information for grid number                                          5
 PW_GRID| Grid distributed over                                   144 processors
 PW_GRID| Real space group dimensions                                    12   12
 PW_GRID| the grid is blocked:                                                NO
 PW_GRID| Cutoff [a.u.]                                                      3.1
 PW_GRID| spherical cutoff:                                                   NO
 PW_GRID|   Bounds   1            -16      15                Points:          32
 PW_GRID|   Bounds   2            -27      26                Points:          54
 PW_GRID|   Bounds   3            -27      26                Points:          54
 PW_GRID| Volume element (a.u.^3)   1.895         Volume (a.u.^3)    176783.5904
 PW_GRID| Grid span                                                    FULLSPACE
 PW_GRID|   Distribution                         Average         Max         Min
 PW_GRID|   G-Vectors                              648.0         704         608
 PW_GRID|   G-Rays                                  20.2          22          19
 PW_GRID|   Real Space Points                      648.0         810         432

 POISSON| Solver                                                        PERIODIC
 POISSON| Periodicity                                                        XYZ

 RS_GRID| Information for grid number                                          1
 RS_GRID|   Bounds   1           -144     143                Points:         288
 RS_GRID|   Bounds   2           -240     239                Points:         480
 RS_GRID|   Bounds   3           -240     239                Points:         480
 RS_GRID| Real space distribution over                                  4 groups
 RS_GRID| Real space distribution along direction                              1
 RS_GRID| Border size                                                         26
 RS_GRID| Real space distribution over                                  6 groups
 RS_GRID| Real space distribution along direction                              2
 RS_GRID| Border size                                                         26
 RS_GRID| Real space distribution over                                  6 groups
 RS_GRID| Real space distribution along direction                              3
 RS_GRID| Border size                                                         26
 RS_GRID|   Distribution                         Average         Max         Min
 RS_GRID|   Planes                                 124.0         124         124
 RS_GRID|   Distribution                         Average         Max         Min
 RS_GRID|   Planes                                 132.0         132         132
 RS_GRID|   Distribution                         Average         Max         Min
 RS_GRID|   Planes                                 132.0         132         132

 RS_GRID| Information for grid number                                          2
 RS_GRID|   Bounds   1            -84      83                Points:         168
 RS_GRID|   Bounds   2           -137     137                Points:         275
 RS_GRID|   Bounds   3           -137     137                Points:         275
 RS_GRID| Real space distribution over                                  4 groups
 RS_GRID| Real space distribution along direction                              1
 RS_GRID| Border size                                                         27
 RS_GRID| Real space distribution over                                  6 groups
 RS_GRID| Real space distribution along direction                              2
 RS_GRID| Border size                                                         27
 RS_GRID| Real space distribution over                                  6 groups
 RS_GRID| Real space distribution along direction                              3
 RS_GRID| Border size                                                         27
 RS_GRID|   Distribution                         Average         Max         Min
 RS_GRID|   Planes                                  96.0          96          96
 RS_GRID|   Distribution                         Average         Max         Min
 RS_GRID|   Planes                                  99.8         100          99
 RS_GRID|   Distribution                         Average         Max         Min
 RS_GRID|   Planes                                  99.8         100          99

 RS_GRID| Information for grid number                                          3
 RS_GRID|   Bounds   1            -48      47                Points:          96
 RS_GRID|   Bounds   2            -80      79                Points:         160
 RS_GRID|   Bounds   3            -80      79                Points:         160
 RS_GRID| Real space fully replicated
 RS_GRID| Group size                                                           1

 RS_GRID| Information for grid number                                          4
 RS_GRID|   Bounds   1            -27      27                Points:          55
 RS_GRID|   Bounds   2            -48      47                Points:          96
 RS_GRID|   Bounds   3            -48      47                Points:          96
 RS_GRID| Real space fully replicated
 RS_GRID| Group size                                                           1

 RS_GRID| Information for grid number                                          5
 RS_GRID|   Bounds   1            -16      15                Points:          32
 RS_GRID|   Bounds   2            -27      26                Points:          54
 RS_GRID|   Bounds   3            -27      26                Points:          54
 RS_GRID| Real space fully replicated
 RS_GRID| Group size                                                           1

 DISTRIBUTION OF THE PARTICLES (ROWS)
              Process row      Number of particles         Number of matrix rows
                        0                        7                            -1
                        1                        7                            -1
                        2                        6                            -1
                        3                        7                            -1
                        4                        7                            -1
                        5                        6                            -1
                        6                        7                            -1
                        7                        7                            -1
                        8                        4                            -1
                        9                        7                            -1
                       10                        6                            -1
                       11                        6                            -1
                      Sum                       77                            -1

 DISTRIBUTION OF THE PARTICLES (COLUMNS)
              Process col      Number of particles      Number of matrix columns
                        0                        7                            -1
                        1                        7                            -1
                        2                        6                            -1
                        3                        7                            -1
                        4                        7                            -1
                        5                        6                            -1
                        6                        7                            -1
                        7                        7                            -1
                        8                        4                            -1
                        9                        7                            -1
                       10                        6                            -1
                       11                        6                            -1
                      Sum                       77                            -1

  HFX_INFO| Replica ID:                                                        1
  HFX_INFO| EPS_SCHWARZ:                                                 1.0E-10
  HFX_INFO| EPS_SCHWARZ_FORCES                                           1.0E-06
  HFX_INFO| EPS_STORAGE_SCALING:                                         1.0E+00
  HFX_INFO| NBINS:                                                            64
  HFX_INFO| BLOCK_SIZE:                                                        1
  HFX_INFO| FRACTION:                                               1.0000000000
  HFX_INFO| Interaction Potential:                                     TRUNCATED
  HFX_INFO| Cutoff Radius [angstrom]:                              10.6711000000
  HFX_INFO| NUMBER_OF_SHELLS:                                               AUTO
  HFX_INFO| Number of periodic shells considered:                             -1
  HFX_INFO| Number of periodic cells considered:                              27


 *******************************************************************************
 ***                     STARTING GEOMETRY OPTIMIZATION                      ***
 ***                                   BFGS                                  ***
 *******************************************************************************

 DISTRIBUTION OF THE NEIGHBOR LISTS
              Total number of particle pairs:                               4175
              Total number of matrix elements:                            134006
              Average number of particle pairs:                               29
              Maximum number of particle pairs:                               47
              Average number of matrix element:                              931
              Maximum number of matrix elements:                            1834


 DISTRIBUTION OF THE OVERLAP MATRIX
              Number  of non-zero blocks:                                   3003
              Percentage non-zero blocks:                                 100.00
              Average number of blocks per CPU:                               21
              Maximum number of blocks per CPU:                               32
              Average number of matrix elements per CPU:                     701
              Maximum number of matrix elements per CPU:                    1063

 Spin 1

 Number of electrons:                                                        175
 Number of occupied orbitals:                                                175
 Number of molecular orbitals:                                               175

 Spin 2

 Number of electrons:                                                        141
 Number of occupied orbitals:                                                141
 Number of molecular orbitals:                                               141

 Number of orbital functions:                                                441
 Number of independent orbital functions:                                    441

 Extrapolation method: initial_guess

 Atomic guess: The first density matrix is obtained in terms of atomic orbitals
               and electronic configurations assigned to each atomic kind

 Guess for atomic kind: Fe_three

 Electronic structure
    Total number of core electrons                                         10.00
    Total number of valence electrons                                      13.00
    Total number of electrons                                              23.00
    Multiplicity                                                          sextet
    Alpha Electrons
    S   [  1.00  1.00] 1.00
    P   [  3.00] 3.00
    D      5.00
    Beta Electrons
    S   [  1.00  1.00] 1.00
    P   [  3.00] 3.00
    D      0.00


 *******************************************************************************
                  Iteration          Convergence                     Energy [au]
 *******************************************************************************
                          1         2.54488                    -120.092779543541
                          2         1.44400                    -120.846604232009
                          3        0.740930E-01                -120.928956050940
                          4        0.121540E-01                -120.929243519022
                          5        0.264514E-02                -120.929251045844
                          6        0.158944E-02                -120.929251358865
                          7        0.706054E-04                -120.929251547836
                          8        0.490983E-04                -120.929251547997
                          9        0.446554E-04                -120.929251548016
                         10        0.118380E-05                -120.929251548105
                         11        0.580204E-06                -120.929251548106

 Energy components [Hartree]           Total Energy ::         -120.929251548106
                                        Band Energy ::          -39.595691766841
                                     Kinetic Energy ::           64.263240157020
                                   Potential Energy ::         -185.192491705125
                                      Virial (-V/T) ::            2.881779556285
                                        Core Energy ::         -194.205095662832
                                          XC Energy ::          -11.802486701985
                                     Coulomb Energy ::           85.078330816712
                       Total Pseudopotential Energy ::         -258.491143083165
                       Local Pseudopotential Energy ::         -235.525727671071
                    Nonlocal Pseudopotential Energy ::          -22.965415412094
                                        Confinement ::            0.228072633131

 Orbital energies  State     Spin  L     Occupation   Energy[a.u.]    Energy[eV]

                       1    alpha  0          1.000      -5.001186   -136.089195
                       1     beta  0          1.000      -4.757280   -129.452160

                       1    alpha  1          3.000      -3.674173    -99.979338
                       1     beta  1          3.000      -3.437560    -93.540776

                       1    alpha  2          5.000      -1.700405    -46.270374
                       1     beta  2          0.000      -1.484714    -40.401136


 Total Electron Density at R=0:                                         0.000193

 Guess for atomic kind: Fe_two

 Electronic structure
    Total number of core electrons                                         10.00
    Total number of valence electrons                                      14.00
    Total number of electrons                                              24.00
    Multiplicity                                                         quintet
    Alpha Electrons
    S   [  1.00  1.00] 1.00
    P   [  3.00] 3.00
    D      5.00
    Beta Electrons
    S   [  1.00  1.00] 1.00
    P   [  3.00] 3.00
    D      1.00


 *******************************************************************************
                  Iteration          Convergence                     Energy [au]
 *******************************************************************************
                          1         2.75006                    -120.751623870624
                          2         7.10386                    -120.533279317961
                          3        0.189619                    -122.076403695967
                          4        0.985018E-01                -122.082123487238
                          5        0.424806E-01                -122.083508107149
                          6        0.769022E-02                -122.083791311262
                          7        0.478796E-02                -122.083792653339
                          8        0.127518E-02                -122.083794126098
                          9        0.661784E-03                -122.083794143079
                         10        0.174606E-02                -122.083794012937
                         11        0.115364E-03                -122.083794199192
                         12        0.302571E-04                -122.083794200927
                         13        0.709790E-04                -122.083794200752
                         14        0.503380E-04                -122.083794200790
                         15        0.198596E-04                -122.083794200916
                         16        0.334257E-04                -122.083794200910
                         17        0.677949E-05                -122.083794200958
                         18        0.541165E-05                -122.083794200960
                         19        0.298113E-05                -122.083794200964
                         20        0.270756E-05                -122.083794200965
                         21        0.191524E-05                -122.083794200965
                         22        0.955689E-06                -122.083794200965

 Energy components [Hartree]           Total Energy ::         -122.083794200965
                                        Band Energy ::          -31.244900619013
                                     Kinetic Energy ::           67.791308684602
                                   Potential Energy ::         -189.875102885567
                                      Virial (-V/T) ::            2.800876787450
                                        Core Energy ::         -204.461862999560
                                          XC Energy ::          -12.381617025763
                                     Coulomb Energy ::           94.759685824359
                       Total Pseudopotential Energy ::         -272.281172481823
                       Local Pseudopotential Energy ::         -247.877134422458
                    Nonlocal Pseudopotential Energy ::          -24.404038059365
                                        Confinement ::            0.280007976603

 Orbital energies  State     Spin  L     Occupation   Energy[a.u.]    Energy[eV]

                       1    alpha  0          1.000      -4.246685   -115.558173
                       1     beta  0          1.000      -4.067559   -110.683916

                       1    alpha  1          3.000      -2.931705    -79.775753
                       1     beta  1          3.000      -2.757806    -75.043708

                       1    alpha  2          5.000      -1.002350    -27.275319
                       1     beta  2          1.000      -0.850376    -23.139920


 Total Electron Density at R=0:                                         0.000878

 Guess for atomic kind: O

 Electronic structure
    Total number of core electrons                                          2.00
    Total number of valence electrons                                       6.00
    Total number of electrons                                               8.00
    Multiplicity                                                   not specified
    S   [  2.00] 2.00
    P      4.00


 *******************************************************************************
                  Iteration          Convergence                     Energy [au]
 *******************************************************************************
                          1         1.66534                     -14.841299127561
                          2         2.12570                     -14.900706768247
                          3        0.100524                     -15.657951719936
                          4        0.182255E-01                 -15.659503667848
                          5        0.461284E-02                 -15.659553193201
                          6        0.258645E-02                 -15.659555512760
                          7        0.512719E-04                 -15.659556575267
                          8        0.153607E-05                 -15.659556575708
                          9        0.770450E-06                 -15.659556575708

 Energy components [Hartree]           Total Energy ::          -15.659556575708
                                        Band Energy ::           -2.978221017336
                                     Kinetic Energy ::           11.772808526921
                                   Potential Energy ::          -27.432365102629
                                      Virial (-V/T) ::            2.330146204272
                                        Core Energy ::          -26.164446096411
                                          XC Energy ::           -3.159347279707
                                     Coulomb Energy ::           13.664236800410
                       Total Pseudopotential Energy ::          -37.971936037102
                       Local Pseudopotential Energy ::          -39.249563814793
                    Nonlocal Pseudopotential Energy ::            1.277627777691
                                        Confinement ::            0.346814137702

 Orbital energies  State     L     Occupation   Energy[a.u.]          Energy[eV]

                       1     0          2.000      -0.858880          -23.371309

                       1     1          4.000      -0.315115           -8.574724


 Total Electron Density at R=0:                                         0.000111

 Guess for atomic kind: H

 Electronic structure
[...]
 flops    15 x    15 x    32            453312000     100.0%      0.0%      0.0%
 flops    15 x    32 x    15            453312000     100.0%      0.0%      0.0%
 flops    32 x    15 x    15            453312000     100.0%      0.0%      0.0%
 flops     8 x     2 x    15            458640000     100.0%      0.0%      0.0%
 flops     2 x     8 x    15            458640000     100.0%      0.0%      0.0%
 flops     2 x    13 x     2            464143680     100.0%      0.0%      0.0%
 flops    15 x    15 x    37            465384150     100.0%      0.0%      0.0%
 flops    37 x    13 x    13            487696482     100.0%      0.0%      0.0%
 flops    19 x    19 x    15            492765000     100.0%      0.0%      0.0%
 flops    13 x    32 x    38            504970752     100.0%      0.0%      0.0%
 flops    32 x    13 x    38            504970752     100.0%      0.0%      0.0%
 flops    36 x    15 x    36            510727680     100.0%      0.0%      0.0%
 flops     2 x    15 x     2            532163520     100.0%      0.0%      0.0%
 flops     8 x    19 x    13            629356000     100.0%      0.0%      0.0%
 flops    19 x     8 x    13            629356000     100.0%      0.0%      0.0%
 flops    37 x    15 x    15            649300050     100.0%      0.0%      0.0%
 flops    38 x    32 x    38            682861824     100.0%      0.0%      0.0%
 flops    38 x    13 x    32            704530944     100.0%      0.0%      0.0%
 flops    38 x    32 x    13            704530944     100.0%      0.0%      0.0%
 flops     8 x    19 x    15            726180000     100.0%      0.0%      0.0%
 flops    19 x     8 x    15            726180000     100.0%      0.0%      0.0%
 flops    15 x    32 x    38            728323200     100.0%      0.0%      0.0%
 flops    32 x    15 x    38            728323200     100.0%      0.0%      0.0%
 flops     2 x    13 x    19            734894160     100.0%      0.0%      0.0%
 flops    19 x    13 x     2            734894160     100.0%      0.0%      0.0%
 flops    36 x    13 x    37            796120416     100.0%      0.0%      0.0%
 flops    37 x    13 x    36            796120416     100.0%      0.0%      0.0%
 flops     2 x    15 x    19            842592240     100.0%      0.0%      0.0%
 flops    19 x    15 x     2            842592240     100.0%      0.0%      0.0%
 flops    36 x    15 x    37            918600480     100.0%      0.0%      0.0%
 flops    37 x    15 x    36            918600480     100.0%      0.0%      0.0%
 flops    38 x    15 x    32           1016150400     100.0%      0.0%      0.0%
 flops    38 x    32 x    15           1016150400     100.0%      0.0%      0.0%
 flops     8 x     8 x    13           1097824000     100.0%      0.0%      0.0%
 flops    19 x    13 x    19           1163582420     100.0%      0.0%      0.0%
 flops     2 x    13 x     8           1237716480     100.0%      0.0%      0.0%
 flops     8 x    13 x     2           1237716480     100.0%      0.0%      0.0%
 flops     8 x     8 x    15           1266720000     100.0%      0.0%      0.0%
 flops    19 x    15 x    19           1334104380     100.0%      0.0%      0.0%
 flops     2 x    15 x     8           1419102720     100.0%      0.0%      0.0%
 flops     8 x    15 x     2           1419102720     100.0%      0.0%      0.0%
 flops    37 x    13 x    37           1431911026     100.0%      0.0%      0.0%
 flops    37 x    15 x    37           1652205030     100.0%      0.0%      0.0%
 flops    13 x    32 x    36           1913573376     100.0%      0.0%      0.0%
 flops    32 x    13 x    36           1913573376     100.0%      0.0%      0.0%
 flops     8 x    13 x    19           1959717760     100.0%      0.0%      0.0%
 flops    19 x    13 x     8           1959717760     100.0%      0.0%      0.0%
 flops     8 x    15 x    19           2246912640     100.0%      0.0%      0.0%
 flops    19 x    15 x     8           2246912640     100.0%      0.0%      0.0%
 flops    36 x    32 x    38           2587686912     100.0%      0.0%      0.0%
 flops    38 x    32 x    36           2587686912     100.0%      0.0%      0.0%
 flops    36 x    13 x    32           2669801472     100.0%      0.0%      0.0%
 flops    36 x    32 x    13           2669801472     100.0%      0.0%      0.0%
 flops    15 x    32 x    36           2759961600     100.0%      0.0%      0.0%
 flops    32 x    15 x    36           2759961600     100.0%      0.0%      0.0%
 flops    32 x    32 x    13           2912452608     100.0%      0.0%      0.0%
 flops    13 x    32 x    32           2912452608     100.0%      0.0%      0.0%
 flops    32 x    13 x    32           2912452608     100.0%      0.0%      0.0%
 flops     8 x    13 x     8           3300577280     100.0%      0.0%      0.0%
 flops     2 x     2 x    32           3380832000     100.0%      0.0%      0.0%
 flops    13 x    32 x    37           3441774336     100.0%      0.0%      0.0%
 flops    32 x    13 x    37           3441774336     100.0%      0.0%      0.0%
 flops     8 x    15 x     8           3784273920     100.0%      0.0%      0.0%
 flops    36 x    15 x    32           3850675200     100.0%      0.0%      0.0%
 flops    36 x    32 x    15           3850675200     100.0%      0.0%      0.0%
 flops    37 x    32 x    38           4654242432     100.0%      0.0%      0.0%
 flops    38 x    32 x    37           4654242432     100.0%      0.0%      0.0%
 flops    37 x    32 x    13           4801934592     100.0%      0.0%      0.0%
 flops    37 x    13 x    32           4801934592     100.0%      0.0%      0.0%
 flops    32 x    32 x    15           4835328000     100.0%      0.0%      0.0%
 flops    15 x    32 x    32           4835328000     100.0%      0.0%      0.0%
 flops    32 x    15 x    32           4835328000     100.0%      0.0%      0.0%
 flops    15 x    32 x    37           4964097600     100.0%      0.0%      0.0%
 flops    32 x    15 x    37           4964097600     100.0%      0.0%      0.0%
 flops    19 x     2 x    32           5228496000     100.0%      0.0%      0.0%
 flops     2 x    19 x    32           5228496000     100.0%      0.0%      0.0%
 flops    37 x    32 x    15           6925867200     100.0%      0.0%      0.0%
 flops    37 x    15 x    32           6925867200     100.0%      0.0%      0.0%
 flops     8 x     2 x    32           8805888000     100.0%      0.0%      0.0%
 flops     2 x     8 x    32           8805888000     100.0%      0.0%      0.0%
 flops    19 x    19 x    32           9461088000     100.0%      0.0%      0.0%
 flops    36 x    32 x    36           9805971456     100.0%      0.0%      0.0%
 flops     2 x    32 x     2          10246440960     100.0%      0.0%      0.0%
 flops    32 x    32 x    38          12740800512     100.0%      0.0%      0.0%
 flops     8 x    19 x    32          13942656000     100.0%      0.0%      0.0%
 flops    19 x     8 x    32          13942656000     100.0%      0.0%      0.0%
 flops    19 x    32 x     2          16223531520     100.0%      0.0%      0.0%
 flops     2 x    32 x    19          16223531520     100.0%      0.0%      0.0%
 flops    37 x    32 x    36          17637129216     100.0%      0.0%      0.0%
 flops    36 x    32 x    37          17637129216     100.0%      0.0%      0.0%
 flops    38 x    32 x    32          17775857664     100.0%      0.0%      0.0%
 flops     8 x     8 x    32          24321024000     100.0%      0.0%      0.0%
 flops    19 x    32 x    19          25687258240     100.0%      0.0%      0.0%
 flops     8 x    32 x     2          27323842560     100.0%      0.0%      0.0%
 flops     2 x    32 x     8          27323842560     100.0%      0.0%      0.0%
 flops    37 x    32 x    37          31722336576     100.0%      0.0%      0.0%
 flops    19 x    32 x     8          43262750720     100.0%      0.0%      0.0%
 flops     8 x    32 x    19          43262750720     100.0%      0.0%      0.0%
 flops    32 x    32 x    36          48280928256     100.0%      0.0%      0.0%
 flops    36 x    32 x    32          67361144832     100.0%      0.0%      0.0%
 flops     8 x    32 x     8          72863580160     100.0%      0.0%      0.0%
 flops    32 x    32 x    32          80253288448     100.0%      0.0%      0.0%
 flops    32 x    32 x    37          86838614016     100.0%      0.0%      0.0%
 flops    37 x    32 x    32         121156503552     100.0%      0.0%      0.0%
 flops inhomo. stacks                           0       0.0%      0.0%      0.0%
 flops total                         1.044952E+12     100.0%      0.0%      0.0%
 flops max/rank                     23.552877E+09     100.0%      0.0%      0.0%
 matmuls inhomo. stacks                         0       0.0%      0.0%      0.0%
 matmuls total                          228642936     100.0%      0.0%      0.0%
 number of processed stacks              51938453     100.0%      0.0%      0.0%
 average stack size                                     4.4       0.0       0.0
 marketing flops                     1.143713E+12
 -------------------------------------------------------------------------------
 # multiplications                          42261
 max memory usage/rank             527.777792E+06
 # max total images/rank                        1
 # max 3D layers                                1
 # MPI messages exchanged               133882848
 MPI messages size (bytes):
  total size                       444.406727E+09
  min size                           0.000000E+00
  max size                          11.552000E+03
  average size                       3.319370E+03
 MPI breakdown and total messages size (bytes):
             size <=      128            81525389                        0
       128 < size <=     8192            17810683             104544720896
      8192 < size <=    32768            34546776             339805875024
     32768 < size <=   131072                   0                        0
    131072 < size <=  4194304                   0                        0
   4194304 < size <= 16777216                   0                        0
  16777216 < size                               0                        0
 -------------------------------------------------------------------------------

 MEMORY| Estimated peak process memory [MiB]                                 504

 -------------------------------------------------------------------------------
 ----                             MULTIGRID INFO                            ----
 -------------------------------------------------------------------------------
 count for grid        1:        6243531          cutoff [a.u.]          250.00
 count for grid        2:        2402159          cutoff [a.u.]           83.33
 count for grid        3:        1114518          cutoff [a.u.]           27.78
 count for grid        4:         350116          cutoff [a.u.]            9.26
 count for grid        5:           1440          cutoff [a.u.]            3.09
 total gridlevel count  :       10111764

 -------------------------------------------------------------------------------
 -                                                                             -
 -                         MESSAGE PASSING PERFORMANCE                         -
 -                                                                             -
 -------------------------------------------------------------------------------

 ROUTINE             CALLS      AVE VOLUME [Bytes]
 MP_Group             2488
 MP_Bcast           130478                   3676.
 MP_Allreduce       424841                    132.
 MP_Sync             16633
 MP_Alltoall        194397                1596611.
 MP_ISendRecv      3018444                  44156.
 MP_Wait           8202430
 MP_comm_split        1965
 MP_ISend          2439958                  52522.
 MP_IRecv          2439958                  52256.
 MP_Recv              2068                  46834.
 MP_Memory         1689292
 -------------------------------------------------------------------------------


 -------------------------------------------------------------------------------
 -                                                                             -
 -                           R E F E R E N C E S                               -
 -                                                                             -
 -------------------------------------------------------------------------------
 
 CP2K version 5.1, the CP2K developers group (2017).
 CP2K is freely available from https://www.cp2k.org/ .

 Schuett, Ole; Messmer, Peter; Hutter, Juerg; VandeVondele, Joost. 
 Electronic Structure Calculations on Graphics Processing Units, John Wiley & Sons, Ltd, 173-190 (2016). 
 GPU-Accelerated Sparse Matrix-Matrix Multiplication for Linear Scaling Density Functional Theory.
 http://dx.doi.org/10.1002/9781118670712.ch8


 Borstnik, U; VandeVondele, J; Weber, V; Hutter, J. 
 PARALLEL COMPUTING, 40 (5-6), 47-58 (2014). 
 Sparse matrix multiplication: The distributed block-compressed sparse
 row library.
 http://dx.doi.org/10.1016/j.parco.2014.03.012


 Hutter, J; Iannuzzi, M; Schiffmann, F; VandeVondele, J. 
 WILEY INTERDISCIPLINARY REVIEWS-COMPUTATIONAL MOLECULAR SCIENCE, 4 (1), 15-25 (2014). 
 CP2K: atomistic simulations of condensed matter systems.
 http://dx.doi.org/10.1002/wcms.1159


 Guidon, M; Hutter, J; VandeVondele, J. 
 JOURNAL OF CHEMICAL THEORY AND COMPUTATION, 5 (11), 3010-3021 (2009). 
 Robust Periodic Hartree-Fock Exchange for Large-Scale Simulations Using
 Gaussian Basis Sets.
 http://dx.doi.org/10.1021/ct900494g


 Guidon, M; Schiffmann, F; Hutter, J; VandeVondele, J. 
 JOURNAL OF CHEMICAL PHYSICS, 128 (21), 214104 (2008). 
 Ab initio molecular dynamics using hybrid density functionals.
 http://dx.doi.org/10.1063/1.2931945


 Krack, M. 
 THEORETICAL CHEMISTRY ACCOUNTS, 114 (1-3), 145-152 (2005). 
 Pseudopotentials for H to Kr optimized for gradient-corrected
 exchange-correlation functionals.
 http://dx.doi.org/10.1007/s00214-005-0655-y


 VandeVondele, J; Krack, M; Mohamed, F; Parrinello, M; Chassaing, T;
 Hutter, J. COMPUTER PHYSICS COMMUNICATIONS, 167 (2), 103-128 (2005). 
 QUICKSTEP: Fast and accurate density functional calculations using a
 mixed Gaussian and plane waves approach.
 http://dx.doi.org/10.1016/j.cpc.2004.12.014


 Frigo, M; Johnson, SG. 
 PROCEEDINGS OF THE IEEE, 93 (2), 216-231 (2005). 
 The design and implementation of FFTW3.
 http://dx.doi.org/10.1109/JPROC.2004.840301


 Kolafa, J. 
 JOURNAL OF COMPUTATIONAL CHEMISTRY, 25 (3), 335-342 (2004). 
 Time-reversible always stable predictor-corrector method for molecular dynamics of polarizable molecules.
 http://dx.doi.org/10.1002/jcc.10385


 VandeVondele, J; Hutter, J. 
 JOURNAL OF CHEMICAL PHYSICS, 118 (10), 4365-4369 (2003). 
 An efficient orbital transformation method for electronic structure
 calculations.
 http://dx.doi.org/10.1063/1.1543154


 Hartwigsen, C; Goedecker, S; Hutter, J. 
 PHYSICAL REVIEW B, 58 (7), 3641-3662 (1998). 
 Relativistic separable dual-space Gaussian pseudopotentials from H to Rn.
 http://dx.doi.org/10.1103/PhysRevB.58.3641


 Lippert, G; Hutter, J; Parrinello, M. 
 MOLECULAR PHYSICS, 92 (3), 477-487 (1997). 
 A hybrid Gaussian and plane wave density functional scheme.
 http://dx.doi.org/10.1080/002689797170220


 Goedecker, S; Teter, M; Hutter, J. 
 PHYSICAL REVIEW B, 54 (3), 1703-1710 (1996). 
 Separable dual-space Gaussian pseudopotentials.
 http://dx.doi.org/10.1103/PhysRevB.54.1703


 -------------------------------------------------------------------------------
 -                                                                             -
 -                                T I M I N G                                  -
 -                                                                             -
 -------------------------------------------------------------------------------
 SUBROUTINE                       CALLS  ASD         SELF TIME        TOTAL TIME
                                MAXIMUM       AVERAGE  MAXIMUM  AVERAGE  MAXIMUM
 CP2K                                 1  1.0    0.011    0.016 5072.542 5072.543
 cp_geo_opt                           1  2.0    0.005    0.030 5072.156 5072.181
 geoopt_bfgs                          1  3.0    0.004    0.005 5072.151 5072.161
 cp_eval_at                          16  4.0    0.001    0.002 5070.329 5070.330
 qs_forces                           15  5.0    0.002    0.002 4957.947 4957.947
 rebuild_ks_matrix                 1609  9.9    0.004    0.004 4107.324 4107.437
 qs_ks_build_kohn_sham_matrix      1609 10.9    0.150    0.218 4107.321 4107.434
 hfx_ks_matrix                     1609 11.9    0.020    0.022 3636.356 3637.512
 qs_energies                         16  5.9    0.001    0.001 2633.209 2633.210
 scf_env_do_scf                      16  6.9    0.003    0.003 2618.756 2618.756
 qs_ks_update_qs_env_forces          15  6.0    0.000    0.000 2436.965 2436.968
 derivatives_four_center             15 10.0    0.066    0.354 2423.665 2423.666
 derivatives_four_center_main        15 11.0    0.008    0.010 2422.925 2422.927
 derivatives_four_center_bin        968 12.0 2234.876 2356.557 2234.876 2356.557
 scf_env_do_scf_inner_loop         1594  8.0    0.051    0.121 1850.605 1851.901
 qs_ks_update_qs_env               1610  9.0    0.009    0.011 1670.963 1671.084
 integrate_four_center             1609 12.9    1.617    2.007 1212.567 1213.715
 integrate_four_center_main        1609 13.9    0.200    0.253 1093.134 1154.424
 integrate_four_center_bin       103038 14.9 1092.934 1154.201 1092.934 1154.201
 qs_rho_update_rho                 1610  9.0    0.009    0.012  873.322  873.592
 calculate_rho_elec                3220 10.0   31.305  109.063  873.312  873.581
 density_rs2pw                     3220 11.0    0.166    0.209  777.563  798.298
 init_scf_loop                       16  7.9    0.000    0.000  766.811  766.815
 pw_transfer                      31574 12.8    1.348    1.582  654.242  658.321
 fft_wrap_pw1pw2                  28356 13.8    0.201    0.240  644.039  647.935
 fft_wrap_pw1pw2_250               8916 14.5   33.423   34.586  534.727  542.122
 fft3d_ps                         28356 15.8  213.061  233.379  523.997  527.689
 rs_pw_transfer                   24379 13.0    0.276    0.350  456.364  475.202
 sum_up_and_integrate               820 11.9    0.008    0.011  371.067  371.166
 integrate_v_rspace                1640 12.9   19.598   70.964  371.059  371.160
 mp_sum_lv                          201  5.2  188.184  308.796  188.184  308.796
 potential_pw2rs                   1640 13.9    0.320    0.404  293.205  293.552
 mp_alltoall_z22v                 28356 17.8  230.316  244.098  230.316  244.098
 rs_pw_transfer_RS2PW_250          3252 13.0   67.758   87.396  154.660  178.031
 yz_to_x                           8096 16.6   25.587   27.924  162.277  171.501
 mp_waitany                      411558 14.9  137.978  168.601  137.978  168.601
 mp_sync                          16633 14.8  107.218  153.588  107.218  153.588
 x_to_yz                           5680 16.8   29.623   31.752  121.617  126.344
 -------------------------------------------------------------------------------

 The number of warnings for this run is : 0
 
 -------------------------------------------------------------------------------
  **** **** ******  **  PROGRAM ENDED AT                 2019-07-11 00:15:52.218
 ***** ** ***  *** **   PROGRAM RAN ON            cpn-u26-24.cbls.ccr.buffalo.ed
 **    ****   ******    PROGRAM RAN BY                                  pavankum
 ***** **    ** ** **   PROGRAM PROCESS ID                                  9692
  **** **  *******  **  PROGRAM STOPPED IN /projects/academic/mdupuis2/pavan/VAB
                                           _calculation/23.Fe_clust_paper/7units
                                           _dzv/GPW/largecell/gopt_state0
