      77
 i =        1, E =     -1323.4709170249
 Fe        18.3406872470        0.0000002192        0.0000008037
 Fe        15.2871530099        0.0000001154        0.0000008719
 Fe        12.2312783807        0.0000002980        0.0000031864
 Fe         9.1559223186       -0.0000000777        0.0000049026
 Fe         6.1240257242       -0.0000002886        0.0000036239
 Fe         3.0895813078       -0.0000003490        0.0000017683
 Fe         0.0123334154       -0.0000003005        0.0000015831
  O        18.3381827993        0.0000023068        2.1317328817
  O        18.3381832966       -0.0000015381       -2.1317312676
  O        19.8569235971       -1.2623448640        0.0000003345
  O        19.8569242619        1.2623448113        0.0000021616
  O        15.2756779836        0.0000051571        2.1323375337
  O        15.2756768701       -0.0000051101       -2.1323356211
  O        16.8132830959       -1.2626778405        0.0000078403
  O        16.8132832770        1.2626782351       -0.0000064097
  O        12.2293882822       -0.0000171878        2.1434665024
  O        12.2293859910        0.0000183590       -2.1434600291
  O        13.7703471946       -1.2624445030        0.0000022593
  O        13.7703473732        1.2624450073        0.0000017931
  O         9.2135182015       -0.0000072582        2.1672668577
  O         9.2135174810        0.0000066641       -2.1672570672
  O        10.7380079579       -1.2584536607       -0.0000097723
  O        10.7380076499        1.2584539073        0.0000185587
  O         6.1317603797       -0.0000011116        2.2837647619
  O         6.1317632295        0.0000009490       -2.2837578819
  O         7.7760801049       -1.3247075693        0.0000010720
  O         7.7760799437        1.3247071784        0.0000085793
  O         3.0253954781        0.0000032124        2.1674442696
  O         3.0253964125       -0.0000043065       -2.1674407884
  O         4.4706325554       -1.3235447161        0.0000034210
  O         4.4706325801        1.3235440269        0.0000008835
  O         0.0013738786        0.0000024828        2.1422641399
  O         0.0013745124       -0.0000038924       -2.1422610934
  O         1.5062216242       -1.2579597845        0.0000033584
  O         1.5062218623        1.2579590346       -0.0000000858
  H        18.3885119658       -0.7960638738       -2.6728681290
  H        18.3884720973        0.7960624001       -2.6728694652
  H        18.3884783097       -0.7960612142        2.6728710638
  H        18.3885043144        0.7960648990        2.6728700168
  H        19.8707714009       -2.2215122097        0.0000025937
  H        19.8707723668        2.2215121564       -0.0000001276
  H        15.1957609899       -0.7957543009       -2.6704961002
  H        15.1957900897        0.7957431967       -2.6705013716
  H        15.1957945072       -0.7957435629        2.6705031613
  H        15.1957585543        0.7957537692        2.6704982893
  H        16.8130009725       -2.2220611351        0.0000035197
  H        16.8130008855        2.2220615284       -0.0000025032
  H        12.0384889062       -0.7940339796       -2.6558456563
  H        12.0385842557        0.7940987762       -2.6558380176
  H        12.0385870199       -0.7940974934        2.6558448480
  H        12.0384921525        0.7940351371        2.6558524998
  H        13.7558053324       -2.2216154511       -0.0000060103
  H        13.7558057220        2.2216159604        0.0000094538
  H         8.9818168389       -0.7958274661       -2.6583281313
  H         8.9818288859        0.7958463415       -2.6583250549
  H         8.9818314825       -0.7958471500        2.6583353815
  H         8.9818195768        0.7958267607        2.6583390560
  H        10.6959122860       -2.2160518933       -0.0000136199
  H        10.6959115821        2.2160521245        0.0000220941
  H         6.1077180938       -0.7982600417       -2.8206510909
  H         6.1077135752        0.7982632431       -2.8206489514
  H         6.1077143052       -0.7982630405        2.8206565219
  H         6.1077176063        0.7982602132        2.8206575817
  H         7.7403087111       -2.2797829018        0.0000007645
  H         7.7403085390        2.2797825060        0.0000094143
  H         3.2237948426       -0.7970170748       -2.6706876772
  H         3.2237889764        0.7970075530       -2.6706914033
  H         3.2237918868       -0.7970080139        2.6706943555
  H         3.2237926220        0.7970164030        2.6706910143
  H         4.5064009117       -2.2786373344        0.0000040029
  H         4.5064008119        2.2786366507       -0.0000000071
  H         0.1641492902       -0.7948915068       -2.6626564900
  H         0.1641340748        0.7948839522       -2.6626609047
  H         0.1641393158       -0.7948845554        2.6626633517
  H         0.1641430727        0.7948907382        2.6626603179
  H         1.5476968249       -2.2155771201        0.0000056138
  H         1.5476970556        2.2155763686       -0.0000020764
      77
 i =        2, E =     -1323.4709170047
 Fe        18.3406872470        0.0000002192        0.0000008037
 Fe        15.2871530099        0.0000001154        0.0000008719
 Fe        12.2312783807        0.0000002980        0.0000031864
 Fe         9.1559223186       -0.0000000777        0.0000049026
 Fe         6.1240257242       -0.0000002886        0.0000036239
 Fe         3.0895813078       -0.0000003490        0.0000017683
 Fe         0.0123334154       -0.0000003005        0.0000015831
  O        18.3381827993        0.0000023068        2.1317328817
  O        18.3381832966       -0.0000015381       -2.1317312676
  O        19.8569235971       -1.2623448640        0.0000003345
  O        19.8569242619        1.2623448113        0.0000021616
  O        15.2756779836        0.0000051571        2.1323375337
  O        15.2756768701       -0.0000051101       -2.1323356211
  O        16.8132830959       -1.2626778405        0.0000078403
  O        16.8132832770        1.2626782351       -0.0000064097
  O        12.2293882822       -0.0000171878        2.1434665024
  O        12.2293859910        0.0000183590       -2.1434600291
  O        13.7703471946       -1.2624445030        0.0000022593
  O        13.7703473732        1.2624450073        0.0000017931
  O         9.2135182015       -0.0000072582        2.1672668577
  O         9.2135174810        0.0000066641       -2.1672570672
  O        10.7380079579       -1.2584536607       -0.0000097723
  O        10.7380076499        1.2584539073        0.0000185587
  O         6.1317603797       -0.0000011116        2.2837647619
  O         6.1317632295        0.0000009490       -2.2837578819
  O         7.7760801049       -1.3247075693        0.0000010720
  O         7.7760799437        1.3247071784        0.0000085793
  O         3.0253954781        0.0000032124        2.1674442696
  O         3.0253964125       -0.0000043065       -2.1674407884
  O         4.4706325554       -1.3235447161        0.0000034210
  O         4.4706325801        1.3235440269        0.0000008835
  O         0.0013738786        0.0000024828        2.1422641399
  O         0.0013745124       -0.0000038924       -2.1422610934
  O         1.5062216242       -1.2579597845        0.0000033584
  O         1.5062218623        1.2579590346       -0.0000000858
  H        18.3885119658       -0.7960638738       -2.6728681290
  H        18.3884720973        0.7960624001       -2.6728694652
  H        18.3884783097       -0.7960612142        2.6728710638
  H        18.3885043144        0.7960648990        2.6728700168
  H        19.8707714009       -2.2215122097        0.0000025937
  H        19.8707723668        2.2215121564       -0.0000001276
  H        15.1957609899       -0.7957543009       -2.6704961002
  H        15.1957900897        0.7957431967       -2.6705013716
  H        15.1957945072       -0.7957435629        2.6705031613
  H        15.1957585543        0.7957537692        2.6704982893
  H        16.8130009725       -2.2220611351        0.0000035197
  H        16.8130008855        2.2220615284       -0.0000025032
  H        12.0384889062       -0.7940339796       -2.6558456563
  H        12.0385842557        0.7940987762       -2.6558380176
  H        12.0385870199       -0.7940974934        2.6558448480
  H        12.0384921525        0.7940351371        2.6558524998
  H        13.7558053324       -2.2216154511       -0.0000060103
  H        13.7558057220        2.2216159604        0.0000094538
  H         8.9818168389       -0.7958274661       -2.6583281313
  H         8.9818288859        0.7958463415       -2.6583250549
  H         8.9818314825       -0.7958471500        2.6583353815
  H         8.9818195768        0.7958267607        2.6583390560
  H        10.6959122860       -2.2160518933       -0.0000136199
  H        10.6959115821        2.2160521245        0.0000220941
  H         6.1077180938       -0.7982600417       -2.8206510909
  H         6.1077135752        0.7982632431       -2.8206489514
  H         6.1077143052       -0.7982630405        2.8206565219
  H         6.1077176063        0.7982602132        2.8206575817
  H         7.7403087111       -2.2797829018        0.0000007645
  H         7.7403085390        2.2797825060        0.0000094143
  H         3.2237948426       -0.7970170748       -2.6706876772
  H         3.2237889764        0.7970075530       -2.6706914033
  H         3.2237918868       -0.7970080139        2.6706943555
  H         3.2237926220        0.7970164030        2.6706910143
  H         4.5064009117       -2.2786373344        0.0000040029
  H         4.5064008119        2.2786366507       -0.0000000071
  H         0.1641492902       -0.7948915068       -2.6626564900
  H         0.1641340748        0.7948839522       -2.6626609047
  H         0.1641393158       -0.7948845554        2.6626633517
  H         0.1641430727        0.7948907382        2.6626603179
  H         1.5476968249       -2.2155771201        0.0000056138
  H         1.5476970556        2.2155763686       -0.0000020764
      77
 i =        1, E =     -1322.6559190358
 Fe        18.3406791493       -0.0000049164        0.0000029262
 Fe        15.2871643026        0.0000011576        0.0000037181
 Fe        12.2312471181        0.0000046087       -0.0000052662
 Fe         9.1560547924       -0.0000067375        0.0000847813
 Fe         6.1240191784        0.0000043580        0.0000196599
 Fe         3.0894007893        0.0000017795       -0.0000761934
 Fe         0.0123398101        0.0000026570       -0.0000072776
  O        18.3398078391        0.0000016435        2.1304269509
  O        18.3398233318       -0.0000015949       -2.1304239295
  O        19.8571240211       -1.2626604806        0.0000064651
  O        19.8571202944        1.2626601957        0.0000059906
  O        15.2731338871       -0.0000035660        2.1308329929
  O        15.2731399950       -0.0000088043       -2.1308333870
  O        16.8132555641       -1.2630369729        0.0000169449
  O        16.8132661106        1.2630405617       -0.0000136580
  O        12.2237978671       -0.0000114055        2.1404311180
  O        12.2237846581        0.0000203929       -2.1404304922
  O        13.7701152636       -1.2627553551       -0.0000066844
  O        13.7701122469        1.2627535207       -0.0000039176
  O         9.2071765071       -0.0000052951        2.1632452815
  O         9.2071174908        0.0000074903       -2.1631820635
  O        10.7377649853       -1.2586972375       -0.0000113449
  O        10.7377531339        1.2587004128        0.0000129208
  O         6.1309049528        0.0000600738        2.2816386839
  O         6.1311357459       -0.0000581217       -2.2816297737
  O         7.7760784559       -1.3244484759       -0.0002393299
  O         7.7760945657        1.3244356332        0.0000623108
  O         3.0311583723        0.0000026051        2.1640161856
  O         3.0310973589       -0.0000038268       -2.1640724212
  O         4.4706423140       -1.3232617023       -0.0000690154
  O         4.4706377314        1.3232627645        0.0001948882
  O         0.0062478203        0.0000028499        2.1397161686
  O         0.0062983570       -0.0000026517       -2.1397064265
  O         1.5064519209       -1.2582037211        0.0000089898
  O         1.5064569162        1.2582069497        0.0000018867
  H        18.3876677454       -0.7931076953       -2.6775653828
  H        18.3876257432        0.7931080627       -2.6775623520
  H        18.3876402213       -0.7931057034        2.6775659749
  H        18.3876639971        0.7931104677        2.6775626398
  H        19.8705103944       -2.2226583218       -0.0000068292
  H        19.8705192305        2.2226579249       -0.0000025513
  H        15.1970792810       -0.7928501612       -2.6752676488
  H        15.1971104833        0.7928406256       -2.6752615889
  H        15.1971164154       -0.7928332735        2.6752896625
  H        15.1970783498        0.7928510191        2.6752522497
  H        16.8130212460       -2.2232599322       -0.0000049777
  H        16.8130088548        2.2232640848        0.0000012214
  H        12.0413905422       -0.7914689368       -2.6611504374
  H        12.0414844051        0.7915314406       -2.6611502064
  H        12.0414819377       -0.7915244547        2.6611456463
  H        12.0413869177        0.7914562308        2.6611799072
  H        13.7560850129       -2.2227597279        0.0000040696
  H        13.7560838246        2.2227574036        0.0000132707
  H         8.9851169370       -0.7933325103       -2.6639105090
  H         8.9851407369        0.7933527610       -2.6639131772
  H         8.9851275630       -0.7933664955        2.6639111037
  H         8.9850883189        0.7933407977        2.6639172395
  H        10.6964117891       -2.2170827121       -0.0000119223
  H        10.6964187767        2.2170879788        0.0000243650
  H         6.1080661697       -0.7945407874       -2.8253333451
  H         6.1080809226        0.7945250585       -2.8252033743
  H         6.1081010001       -0.7945261132        2.8252188013
  H         6.1081171562        0.7945498170        2.8253444508
  H         7.7405378571       -2.2802382262        0.0000065649
  H         7.7405552717        2.2802289426       -0.0001037092
  H         3.2208170548       -0.7943739971       -2.6760169879
  H         3.2208390201        0.7943628752       -2.6760141579
  H         3.2208066768       -0.7943518718        2.6760231246
  H         3.2207945497        0.7943567233        2.6760267755
  H         4.5061451237       -2.2790746493        0.0001369023
  H         4.5061367506        2.2790747656        0.0000181705
  H         0.1615951968       -0.7922032076       -2.6677916781
  H         0.1615966879        0.7921958999       -2.6677950775
  H         0.1616080462       -0.7921914041        2.6677931614
  H         0.1616308718        0.7921921951        2.6677947969
  H         1.5471990199       -2.2166082897        0.0000045037
  H         1.5471911664        2.2166115634       -0.0000003014
      77
 i =        2, E =     -1322.6561547205
 Fe        18.3410140413        0.0000014819        0.0000072314
 Fe        15.2865245036       -0.0000063645        0.0000057434
 Fe        12.2299506088        0.0000048446       -0.0000103269
 Fe         9.1546797710       -0.0000043806        0.0000970523
 Fe         6.1238701434        0.0000010549        0.0000062668
 Fe         3.0904962119        0.0000058270       -0.0001045835
 Fe         0.0133761380       -0.0000006649        0.0000023445
  O        18.3418099632        0.0000016738        2.1338773172
  O        18.3418361283       -0.0000032719       -2.1338724965
  O        19.8574494891       -1.2625191714       -0.0000009223
  O        19.8574546387        1.2625198890        0.0000001151
  O        15.2699786764       -0.0000023055        2.1340976297
  O        15.2699892884       -0.0000088371       -2.1340945677
  O        16.8131270589       -1.2627073091        0.0000131180
  O        16.8131253334        1.2627090006       -0.0000128021
  O        12.2173799854       -0.0000111834        2.1423101743
  O        12.2173757267        0.0000213795       -2.1423058277
  O        13.7695178627       -1.2626714853       -0.0000061187
  O        13.7695203522        1.2626707422       -0.0000040439
  O         9.2003587513       -0.0000185417        2.1643406788
  O         9.2003203420        0.0000176883       -2.1642859846
  O        10.7369786757       -1.2590153598        0.0000199463
  O        10.7369712650        1.2590171221        0.0000258024
  O         6.1294967972        0.0001159044        2.2858228659
  O         6.1299092203       -0.0001114931       -2.2858238731
  O         7.7755867496       -1.3249319988       -0.0003987920
  O         7.7756013773        1.3249165871        0.0001617028
  O         3.0371042910       -0.0000085596        2.1656492562
  O         3.0370532871        0.0000075874       -2.1657057213
  O         4.4708459033       -1.3236987895       -0.0001515338
  O         4.4708487294        1.3237035235        0.0003635070
  O         0.0119603058        0.0000033850        2.1420225001
  O         0.0120062892       -0.0000018875       -2.1419996523
  O         1.5069811644       -1.2584742886        0.0000016687
  O         1.5069811675        1.2584788061       -0.0000200801
  H        18.3867014467       -0.7939799046       -2.6805708666
  H        18.3866578700        0.7939805274       -2.6805633176
  H        18.3866786578       -0.7939776498        2.6805698029
  H        18.3867023239        0.7939831306        2.6805653482
  H        19.8704277604       -2.2225011366       -0.0000079183
  H        19.8704329850        2.2225015893       -0.0000016484
  H        15.1989748779       -0.7937847888       -2.6784040245
  H        15.1990094041        0.7937760350       -2.6783961531
  H        15.1990174004       -0.7937699203        2.6784267210
  H        15.1989751456        0.7937923659        2.6783833920
  H        16.8129736900       -2.2229248690       -0.0000062577
  H        16.8129654895        2.2229268631        0.0000013869
  H        12.0455539467       -0.7927598457       -2.6651504645
  H        12.0456489847        0.7928208414       -2.6651538140
  H        12.0456512017       -0.7928263252        2.6651371800
  H        12.0455536722        0.7927555197        2.6651784216
  H        13.7560956871       -2.2226599103        0.0000065165
  H        13.7560932772        2.2226597047        0.0000138029
  H         8.9899873102       -0.7946514716       -2.6682752183
  H         8.9900235995        0.7946784162       -2.6683006540
  H         8.9900081319       -0.7946800886        2.6683260436
  H         8.9899514831        0.7946435480        2.6683053258
  H        10.6966268436       -2.2173192811       -0.0000207220
  H        10.6966293175        2.2173219134        0.0000232993
  H         6.1086086306       -0.7963195261       -2.8273616401
  H         6.1086324817        0.7962785584       -2.8271147366
  H         6.1086543705       -0.7962697030        2.8271403018
  H         6.1086764982        0.7963226878        2.8273842920
  H         7.7405851383       -2.2804588393       -0.0000327375
  H         7.7406112325        2.2804461075       -0.0002627860
  H         3.2166534006       -0.7955215390       -2.6798660452
  H         3.2166829275        0.7955162576       -2.6798824618
  H         3.2166366121       -0.7955222582        2.6798632731
  H         3.2166244852        0.7955191219        2.6798489943
  H         4.5059149722       -2.2792420056        0.0002967836
  H         4.5059002440        2.2792465534        0.0000580153
  H         0.1581671097       -0.7933593861       -2.6714539000
  H         0.1581752185        0.7933520458       -2.6714572592
  H         0.1581814736       -0.7933619124        2.6714478393
  H         0.1582136153        0.7933603263        2.6714517172
  H         1.5468634732       -2.2168029337        0.0000049674
  H         1.5468563077        2.2168075413        0.0000077002
      77
 i =        3, E =     -1322.6563311958
 Fe        18.3422964947        0.0000006934        0.0000025223
 Fe        15.2843037828       -0.0000076738        0.0000010126
 Fe        12.2255276308        0.0000047037       -0.0000128771
 Fe         9.1499939261       -0.0000058951        0.0000960088
 Fe         6.1233675934        0.0000015686        0.0000021080
 Fe         3.0945198902        0.0000027102       -0.0001019078
 Fe         0.0170855927        0.0000024987       -0.0000019551
  O        18.3439307622        0.0000040294        2.1400729275
  O        18.3439583917       -0.0000031599       -2.1400740900
  O        19.8584019370       -1.2612784459        0.0000002107
  O        19.8584014930        1.2612803279        0.0000042182
  O        15.2663891464        0.0000024202        2.1400446593
  O        15.2664006738       -0.0000089993       -2.1400455233
  O        16.8127796734       -1.2608691201        0.0000106748
  O        16.8127765014        1.2608663332       -0.0000026613
  O        12.2110766579       -0.0000128179        2.1467385048
  O        12.2110789828        0.0000200185       -2.1467371081
  O        13.7678976108       -1.2616003642       -0.0000042118
  O        13.7679019927        1.2615995387       -0.0000025132
  O         9.1942807297       -0.0000636866        2.1678084278
  O         9.1944045509        0.0000572252       -2.1677597309
  O        10.7347653413       -1.2592295705        0.0000771430
  O        10.7347615917        1.2592293732        0.0000336420
  O         6.1271177841        0.0001712527        2.2900007294
  O         6.1277075458       -0.0001636900       -2.2899896808
  O         7.7737529856       -1.3264713231       -0.0005287684
  O         7.7737692635        1.3264571113        0.0002559644
  O         3.0418980162       -0.0000482694        2.1694937110
  O         3.0420109621        0.0000499073       -2.1695397167
  O         4.4718198626       -1.3252199154       -0.0002441593
  O         4.4718234011        1.3252313441        0.0004954972
  O         0.0175254371        0.0000039395        2.1468892856
  O         0.0175586930       -0.0000035549       -2.1468903527
  O         1.5084844973       -1.2585366132       -0.0000117115
  O         1.5084883605        1.2585414915       -0.0000713093
  H        18.3851161931       -0.7951989644       -2.6858975192
  H        18.3850709738        0.7952008819       -2.6858886079
  H        18.3850978121       -0.7951911759        2.6858970965
  H        18.3851228495        0.7951985066        2.6858955974
  H        19.8709747423       -2.2213622833       -0.0000113421
  H        19.8709829475        2.2213641510       -0.0000019806
  H        15.2023327926       -0.7950630313       -2.6839614537
  H        15.2023733811        0.7950548936       -2.6839512198
  H        15.2023845721       -0.7950404055        2.6839858840
  H        15.2023322082        0.7950700976        2.6839410439
  H        16.8128031835       -2.2212458024       -0.0000079316
  H        16.8127906682        2.2212434574       -0.0000007779
  H        12.0524857973       -0.7940400428       -2.6723006136
  H        12.0525829843        0.7940967422       -2.6723055024
  H        12.0525937127       -0.7941065859        2.6722838231
  H        12.0524920934        0.7940331456        2.6723270509
  H        13.7552486942       -2.2216781331        0.0000082672
  H        13.7552530814        2.2216775274        0.0000136315
  H         8.9973907871       -0.7954626075       -2.6759622354
  H         8.9974755523        0.7955152115       -2.6760810555
  H         8.9974912867       -0.7955539445        2.6761519467
  H         8.9973807441        0.7954841737        2.6760304984
  H        10.6957432576       -2.2175233970       -0.0000416695
  H        10.6957374499        2.2175230878        0.0000311599
  H         6.1095046319       -0.7958389077       -2.8323023575
  H         6.1095381289        0.7957607074       -2.8319299809
  H         6.1095170900       -0.7957593144        2.8319550758
  H         6.1095483730        0.7958554588        2.8323254454
  H         7.7400047926       -2.2817710361       -0.0001721901
  H         7.7400357539        2.2817562711       -0.0005318484
  H         3.2105459599       -0.7962137660       -2.6865106214
  H         3.2105592021        0.7962338073       -2.6866150943
  H         3.2105299908       -0.7962188649        2.6865461074
  H         3.2105462817        0.7961892501        2.6864502159
  H         4.5060415923       -2.2805040463        0.0005686974
  H         4.5060289850        2.2805165406        0.0001949846
  H         0.1526419795       -0.7945945014       -2.6779286402
  H         0.1526607363        0.7945851039       -2.6779271477
  H         0.1526621750       -0.7945743016        2.6779331675
  H         0.1527079265        0.7945702998        2.6779387892
  H         1.5474286709       -2.2168566936        0.0000001694
  H         1.5474180407        2.2168620819        0.0000282846
      77
 i =        4, E =     -1322.6563919255
 Fe        18.3432259158        0.0000046768        0.0000101945
 Fe        15.2825222193       -0.0000105500        0.0000067204
 Fe        12.2221063487        0.0000059657       -0.0000050879
 Fe         9.1468029324       -0.0000074877        0.0000843688
 Fe         6.1228236982        0.0000025495       -0.0000084741
 Fe         3.0970649139        0.0000059717       -0.0000948847
 Fe         0.0198531762       -0.0000017701        0.0000151387
  O        18.3439286639        0.0000041894        2.1427662824
  O        18.3439476527       -0.0000022833       -2.1427563240
  O        19.8591448688       -1.2604328625       -0.0000069286
  O        19.8591504368        1.2604352649       -0.0000003353
  O        15.2660729867        0.0000070030        2.1427013850
  O        15.2660860087       -0.0000077354       -2.1426924614
  O        16.8124661894       -1.2597599728        0.0000015882
  O        16.8124558355        1.2597539537       -0.0000062030
  O        12.2110401943       -0.0000124914        2.1495893810
  O        12.2110583594        0.0000146001       -2.1495801601
  O        13.7665139469       -1.2608272246       -0.0000058947
  O        13.7665233353        1.2608267292       -0.0000043477
  O         9.1938620617       -0.0000969272        2.1707112423
  O         9.1940737868        0.0000858018       -2.1706846706
  O        10.7329815929       -1.2590672001        0.0000898080
  O        10.7329774140        1.2590638153        0.0000430012
  O         6.1256916321        0.0001795011        2.2940461622
  O         6.1263844631       -0.0001701505       -2.2940466693
  O         7.7723806685       -1.3270960831       -0.0005391877
  O         7.7723969150        1.3270881554        0.0002358427
  O         3.0415340131       -0.0000788562        2.1722076241
  O         3.0417516035        0.0000809720       -2.1722446540
  O         4.4723549814       -1.3259580553       -0.0002108863
  O         4.4723626293        1.3259694268        0.0005209788
  O         0.0173401335        0.0000066929        2.1496759769
  O         0.0173563663       -0.0000065273       -2.1496557719
  O         1.5095869202       -1.2583702377       -0.0000290220
  O         1.5095811019        1.2583761118       -0.0000900090
  H        18.3842608278       -0.7945321844       -2.6894853619
  H        18.3842160466        0.7945349727       -2.6894778021
  H        18.3842434411       -0.7945363871        2.6894801495
  H        18.3842693166        0.7945445688        2.6894784477
  H        19.8721090228       -2.2205303533       -0.0000095619
  H        19.8721114398        2.2205329470       -0.0000006218
  H        15.2044684641       -0.7944069523       -2.6876924704
  H        15.2045125559        0.7943992821       -2.6876847018
  H        15.2045268605       -0.7943927665        2.6877091757
  H        15.2044686167        0.7944266838        2.6876708990
  H        16.8125558905       -2.2201610542       -0.0000056458
  H        16.8125462117        2.2201549426       -0.0000001038
  H        12.0567888113       -0.7935985309       -2.6767668949
  H        12.0568871127        0.7936498423       -2.6767638189
  H        12.0569109574       -0.7936732902        2.6767444524
  H        12.0568074855        0.7936008725        2.6767868055
  H        13.7536985916       -2.2209154070        0.0000086959
  H        13.7537069204        2.2209152193        0.0000136030
  H         9.0018211142       -0.7954067327       -2.6804521066
  H         9.0019644553        0.7954837562       -2.6806458650
  H         9.0019863186       -0.7955012482        2.6807650534
  H         9.0018172593        0.7954019151        2.6805623160
  H        10.6937352735       -2.2173784008       -0.0000476948
  H        10.6937241356        2.2173741343        0.0000432196
  H         6.1100199202       -0.7973282502       -2.8344087476
  H         6.1100558095        0.7972357471       -2.8340248246
  H         6.1100027571       -0.7972171494        2.8340589117
  H         6.1100372372        0.7973306341        2.8344415820
  H         7.7387717692       -2.2825185831       -0.0003027835
  H         7.7388000880        2.2825092554       -0.0006901648
  H         3.2071983349       -0.7960040354       -2.6902238251
  H         3.2071682633        0.7960495682       -2.6904021151
  H         3.2071475067       -0.7960413009        2.6902954857
  H         3.2072142080        0.7959863047        2.6901264217
  H         4.5067762259       -2.2813394699        0.0007225807
  H         4.5067662400        2.2813521441        0.0003177254
  H         0.1494326408       -0.7940425108       -2.6819992541