 DBCSR| Multiplication driver                                               BLAS
 DBCSR| Multrec recursion limit                                              512
 DBCSR| Multiplication stack size                                           1000
 DBCSR| Maximum elements for images                                    UNLIMITED
 DBCSR| Multiplicative factor virtual images                                   1
 DBCSR| Multiplication size stacks                                             3
 DBCSR| Number of 3D layers                                               SINGLE
 DBCSR| Use MPI memory allocation                                              T
 DBCSR| Use RMA algorithm                                                      F
 DBCSR| Use Communication thread                                               T
 DBCSR| Communication thread load                                             87


  **** **** ******  **  PROGRAM STARTED AT               2019-07-13 09:01:03.806
 ***** ** ***  *** **   PROGRAM STARTED ON        cpn-u27-15.cbls.ccr.buffalo.ed
 **    ****   ******    PROGRAM STARTED BY                              pavankum
 ***** **    ** ** **   PROGRAM PROCESS ID                                444311
  **** **  *******  **  PROGRAM STARTED IN /projects/academic/mdupuis2/pavan/VAB
                                           _calculation/23.Fe_clust_paper/7units
                                           _dzv/GPW/largecell/point_0.4

 CP2K| version string:                                          CP2K version 5.1
 CP2K| source code revision number:                                    svn:18091
 CP2K| cp2kflags: libint fftw3 libxc parallel mpi3 scalapack has_no_shared_glibc
 CP2K|             max_contr=4
 CP2K| is freely available from                            https://www.cp2k.org/
 CP2K| Program compiled at                          Wed Mar 21 12:31:25 EDT 2018
 CP2K| Program compiled on                       srv-k07-14.cbls.ccr.buffalo.edu
 CP2K| Program compiled for                                                local
 CP2K| Data directory path    /projects/academic/mdupuis2/pavan/cp2k/cp2k-5.1/da
 CP2K| Input file name                                                 input.inp

 GLOBAL| Force Environment number                                              1
 GLOBAL| Basis set file name            /projects/academic/mdupuis2/pavan/BASIS_
 GLOBAL| Potential file name            /projects/academic/mdupuis2/pavan/POTENT
 GLOBAL| MM Potential file name                                     MM_POTENTIAL
 GLOBAL| Coordinate file name                                   intermediate.xyz
 GLOBAL| Method name                                                        CP2K
 GLOBAL| Project name                                                      p_fe_
 GLOBAL| Preferred FFT library                                             FFTW3
 GLOBAL| Preferred diagonalization lib.                                       SL
 GLOBAL| Run type                                                         ENERGY
 GLOBAL| All-to-all communication in single precision                          F
 GLOBAL| FFTs using library dependent lengths                                  T
 GLOBAL| Global print level                                               MEDIUM
 GLOBAL| Total number of message passing processes                           144
 GLOBAL| Number of threads for this process                                    1
 GLOBAL| This output is from process                                           0
 GLOBAL| CPU model name :  Intel(R) Xeon(R) Gold 6126 CPU @ 2.60GHz

 MEMORY| system memory details [Kb]
 MEMORY|                        rank 0           min           max       average
 MEMORY| MemTotal            196307064     196307064     196307064     196307064
 MEMORY| MemFree             101034496      60213360     120849872      91150336
 MEMORY| Buffers                423976        417780        497680        453445
 MEMORY| Cached               88422496      68467184     128995220      98203744
 MEMORY| Slab                   995560        969004       1189424       1069726
 MEMORY| SReclaimable           664136        641900        862452        739196
 MEMORY| MemLikelyFree       190545104     190425280     190755604     190546722


 *** Fundamental physical constants (SI units) ***

 *** Literature: B. J. Mohr and B. N. Taylor,
 ***             CODATA recommended values of the fundamental physical
 ***             constants: 2006, Web Version 5.1
 ***             http://physics.nist.gov/constants

 Speed of light in vacuum [m/s]                             2.99792458000000E+08
 Magnetic constant or permeability of vacuum [N/A**2]       1.25663706143592E-06
 Electric constant or permittivity of vacuum [F/m]          8.85418781762039E-12
 Planck constant (h) [J*s]                                  6.62606896000000E-34
 Planck constant (h-bar) [J*s]                              1.05457162825177E-34
 Elementary charge [C]                                      1.60217648700000E-19
 Electron mass [kg]                                         9.10938215000000E-31
 Electron g factor [ ]                                     -2.00231930436220E+00
 Proton mass [kg]                                           1.67262163700000E-27
 Fine-structure constant                                    7.29735253760000E-03
 Rydberg constant [1/m]                                     1.09737315685270E+07
 Avogadro constant [1/mol]                                  6.02214179000000E+23
 Boltzmann constant [J/K]                                   1.38065040000000E-23
 Atomic mass unit [kg]                                      1.66053878200000E-27
 Bohr radius [m]                                            5.29177208590000E-11

 *** Conversion factors ***

 [u] -> [a.u.]                                              1.82288848426455E+03
 [Angstrom] -> [Bohr] = [a.u.]                              1.88972613288564E+00
 [a.u.] = [Bohr] -> [Angstrom]                              5.29177208590000E-01
 [a.u.] -> [s]                                              2.41888432650478E-17
 [a.u.] -> [fs]                                             2.41888432650478E-02
 [a.u.] -> [J]                                              4.35974393937059E-18
 [a.u.] -> [N]                                              8.23872205491840E-08
 [a.u.] -> [K]                                              3.15774647902944E+05
 [a.u.] -> [kJ/mol]                                         2.62549961709828E+03
 [a.u.] -> [kcal/mol]                                       6.27509468713739E+02
 [a.u.] -> [Pa]                                             2.94210107994716E+13
 [a.u.] -> [bar]                                            2.94210107994716E+08
 [a.u.] -> [atm]                                            2.90362800883016E+08
 [a.u.] -> [eV]                                             2.72113838565563E+01
 [a.u.] -> [Hz]                                             6.57968392072181E+15
 [a.u.] -> [1/cm] (wave numbers)                            2.19474631370540E+05
 [a.u./Bohr**2] -> [1/cm]                                   5.14048714338585E+03
 

 CELL_TOP| Volume [angstrom^3]:                                        26196.625
 CELL_TOP| Vector a [angstrom    21.385     0.000     0.000    |a| =      21.385
 CELL_TOP| Vector b [angstrom     0.000    35.000     0.000    |b| =      35.000
 CELL_TOP| Vector c [angstrom     0.000     0.000    35.000    |c| =      35.000
 CELL_TOP| Angle (b,c), alpha [degree]:                                   90.000
 CELL_TOP| Angle (a,c), beta  [degree]:                                   90.000
 CELL_TOP| Angle (a,b), gamma [degree]:                                   90.000
 CELL_TOP| Numerically orthorhombic:                                         YES

 CELL| Volume [angstrom^3]:                                            26196.625
 CELL| Vector a [angstrom]:      21.385     0.000     0.000    |a| =      21.385
 CELL| Vector b [angstrom]:       0.000    35.000     0.000    |b| =      35.000
 CELL| Vector c [angstrom]:       0.000     0.000    35.000    |c| =      35.000
 CELL| Angle (b,c), alpha [degree]:                                       90.000
 CELL| Angle (a,c), beta  [degree]:                                       90.000
 CELL| Angle (a,b), gamma [degree]:                                       90.000
 CELL| Numerically orthorhombic:                                             YES

 CELL_REF| Volume [angstrom^3]:                                        26196.625
 CELL_REF| Vector a [angstrom    21.385     0.000     0.000    |a| =      21.385
 CELL_REF| Vector b [angstrom     0.000    35.000     0.000    |b| =      35.000
 CELL_REF| Vector c [angstrom     0.000     0.000    35.000    |c| =      35.000
 CELL_REF| Angle (b,c), alpha [degree]:                                   90.000
 CELL_REF| Angle (a,c), beta  [degree]:                                   90.000
 CELL_REF| Angle (a,b), gamma [degree]:                                   90.000
 CELL_REF| Numerically orthorhombic:                                         YES

 *******************************************************************************
 *******************************************************************************
 **                                                                           **
 **     #####                         ##              ##                      **
 **    ##   ##            ##          ##              ##                      **
 **   ##     ##                       ##            ######                    **
 **   ##     ##  ##   ##  ##   #####  ##  ##   ####   ##    #####    #####    **
 **   ##     ##  ##   ##  ##  ##      ## ##   ##      ##   ##   ##  ##   ##   **
 **   ##  ## ##  ##   ##  ##  ##      ####     ###    ##   ######   ######    **
 **    ##  ###   ##   ##  ##  ##      ## ##      ##   ##   ##       ##        **
 **     #######   #####   ##   #####  ##  ##  ####    ##    #####   ##        **
 **           ##                                                    ##        **
 **                                                                           **
 **                                                ... make the atoms dance   **
 **                                                                           **
 **            Copyright (C) by CP2K developers group (2000 - 2017)           **
 **                                                                           **
 *******************************************************************************

 DFT| Spin unrestricted (spin-polarized) Kohn-Sham calculation               UKS
 DFT| Multiplicity                                                            35
 DFT| Number of spin states                                                    2
 DFT| Charge                                                                   6
 DFT| Self-interaction correction (SIC)                                       NO
 DFT| Cutoffs: density                                              1.000000E-10
 DFT|          gradient                                             1.000000E-10
 DFT|          tau                                                  1.000000E-10
 DFT|          cutoff_smoothing_range                               0.000000E+00
 DFT| XC density smoothing                                                  NONE
 DFT| XC derivatives                                                          PW
 FUNCTIONAL| NO EXCHANGE-CORRELATION FUNCTIONAL USED.

 QS| Method:                                                                 GPW
 QS| Density plane wave grid type                        NON-SPHERICAL FULLSPACE
 QS| Number of grid levels:                                                    5
 QS| Density cutoff [a.u.]:                                                250.0
 QS| Multi grid cutoff [a.u.]: 1) grid level                               250.0
 QS|                           2) grid level                                83.3
 QS|                           3) grid level                                27.8
 QS|                           4) grid level                                 9.3
 QS|                           5) grid level                                 3.1
 QS| Grid level progression factor:                                          3.0
 QS| Relative density cutoff [a.u.]:                                        30.0
 QS| Consistent realspace mapping and integration 
 QS| Interaction thresholds: eps_pgf_orb:                                1.0E-10
 QS|                         eps_filter_matrix:                          0.0E+00
 QS|                         eps_core_charge:                            1.0E-14
 QS|                         eps_rho_gspace:                             1.0E-12
 QS|                         eps_rho_rspace:                             1.0E-12
 QS|                         eps_gvg_rspace:                             1.0E-06
 QS|                         eps_ppl:                                    1.0E-02
 QS|                         eps_ppnl:                                   1.0E-08


 ATOMIC KIND INFORMATION

  1. Atomic kind: Fe                                    Number of atoms:       7

     Orbital Basis Set                                                   mod-DZV

       Number of orbital shell sets:                                           1
       Number of orbital shells:                                               7
       Number of primitive Cartesian functions:                                6
       Number of Cartesian basis functions:                                   21
       Number of spherical basis functions:                                   19
       Norm type:                                                              2

       Normalised Cartesian orbitals:

                        Set   Shell   Orbital            Exponent    Coefficient

                          1       1    2s                8.424366      -0.545589
                                                         4.825220      -0.832336
                                                         2.198939       0.958990
                                                         0.891661       0.416271
                                                         0.316231       0.012631
                                                         0.103474      -0.013505

                          1       2    3s                8.424366      -0.106056
                                                         4.825220      -0.104587
                                                         2.198939       0.052318
                                                         0.891661      -0.169042
                                                         0.316231       0.061854
                                                         0.103474       0.122891

                          1       3    4s                8.424366      -0.333477
                                                         4.825220      -0.289267
                                                         2.198939      -0.125861
                                                         0.891661      -1.004000
                                                         0.316231       0.780774
                                                         0.103474      -0.187846

                          1       4    3px               8.424366      -1.658234
                                                         4.825220       1.618912
                                                         2.198939       1.969078
                                                         0.891661       0.523780
                                                         0.316231       0.024574
                                                         0.103474      -0.000798
                          1       4    3py               8.424366      -1.658234
                                                         4.825220       1.618912
                                                         2.198939       1.969078
                                                         0.891661       0.523780
                                                         0.316231       0.024574
                                                         0.103474      -0.000798
                          1       4    3pz               8.424366      -1.658234
                                                         4.825220       1.618912
                                                         2.198939       1.969078
                                                         0.891661       0.523780
                                                         0.316231       0.024574
                                                         0.103474      -0.000798

                          1       5    4px               8.424366      -0.105249
                                                         4.825220      -0.126123
                                                         2.198939      -0.349657
                                                         0.891661      -0.133470
                                                         0.316231       0.170554
                                                         0.103474       0.054381
                          1       5    4py               8.424366      -0.105249
                                                         4.825220      -0.126123
                                                         2.198939      -0.349657
                                                         0.891661      -0.133470
                                                         0.316231       0.170554
                                                         0.103474       0.054381
                          1       5    4pz               8.424366      -0.105249
                                                         4.825220      -0.126123
                                                         2.198939      -0.349657
                                                         0.891661      -0.133470
                                                         0.316231       0.170554
                                                         0.103474       0.054381

                          1       6    4dx2              8.424366       7.918298
                                                         4.825220       5.112663
                                                         2.198939       2.118663
                                                         0.891661       0.465004
                                                         0.316231       0.065856
                                                         0.103474       0.002769
                          1       6    4dxy              8.424366      13.714895
                                                         4.825220       8.855393
                                                         2.198939       3.669632
                                                         0.891661       0.805411
                                                         0.316231       0.114066
                                                         0.103474       0.004796
                          1       6    4dxz              8.424366      13.714895
                                                         4.825220       8.855393
                                                         2.198939       3.669632
                                                         0.891661       0.805411
                                                         0.316231       0.114066
                                                         0.103474       0.004796
                          1       6    4dy2              8.424366       7.918298
                                                         4.825220       5.112663
                                                         2.198939       2.118663
                                                         0.891661       0.465004
                                                         0.316231       0.065856
                                                         0.103474       0.002769
                          1       6    4dyz              8.424366      13.714895
                                                         4.825220       8.855393
                                                         2.198939       3.669632
                                                         0.891661       0.805411
                                                         0.316231       0.114066
                                                         0.103474       0.004796
                          1       6    4dz2              8.424366       7.918298
                                                         4.825220       5.112663
                                                         2.198939       2.118663
                                                         0.891661       0.465004
                                                         0.316231       0.065856
                                                         0.103474       0.002769

                          1       7    5dx2              8.424366      -4.223614
                                                         4.825220      -1.970584
                                                         2.198939      -1.543490
                                                         0.891661      -0.041381
                                                         0.316231       0.082821
                                                         0.103474       0.021964
                          1       7    5dxy              8.424366      -7.315513
                                                         4.825220      -3.413151
                                                         2.198939      -2.673404
                                                         0.891661      -0.071673
                                                         0.316231       0.143450
                                                         0.103474       0.038042
                          1       7    5dxz              8.424366      -7.315513
                                                         4.825220      -3.413151
                                                         2.198939      -2.673404
                                                         0.891661      -0.071673
                                                         0.316231       0.143450
                                                         0.103474       0.038042
                          1       7    5dy2              8.424366      -4.223614
                                                         4.825220      -1.970584
                                                         2.198939      -1.543490
                                                         0.891661      -0.041381
                                                         0.316231       0.082821
                                                         0.103474       0.021964
                          1       7    5dyz              8.424366      -7.315513
                                                         4.825220      -3.413151
                                                         2.198939      -2.673404
                                                         0.891661      -0.071673
                                                         0.316231       0.143450
                                                         0.103474       0.038042
                          1       7    5dz2              8.424366      -4.223614
                                                         4.825220      -1.970584
                                                         2.198939      -1.543490
                                                         0.891661      -0.041381
                                                         0.316231       0.082821
                                                         0.103474       0.021964

     GTH Potential information for                                  GTH-BLYP-q16

       Description:                       Goedecker-Teter-Hutter pseudopotential
                                           Goedecker et al., PRB 54, 1703 (1996)
                                          Hartwigsen et al., PRB 58, 3641 (1998)
                                                      Krack, TCA 114, 145 (2005)

       Gaussian exponent of the core charge distribution:               3.858025
       Electronic configuration (s p d ...):                           4   6   6

       Parameters of the local part of the GTH pseudopotential:

                          rloc        C1          C2          C3          C4
                        0.360000    7.011025   -0.222747

       Parameters of the non-local part of the GTH pseudopotential:

                   l      r(l)      h(i,j,l)

                   0    0.276205    0.611496    7.992357
                                    7.992357  -10.318089
                   1    0.247130   -8.710556    8.684169
                                    8.684169  -10.275248
                   2    0.223534  -12.411504

  2. Atomic kind: O                                     Number of atoms:      28

     Orbital Basis Set                                                   mod-DZV

       Number of orbital shell sets:                                           1
       Number of orbital shells:                                               4
       Number of primitive Cartesian functions:                                5
       Number of Cartesian basis functions:                                    8
       Number of spherical basis functions:                                    8
       Norm type:                                                              2

       Normalised Cartesian orbitals:

                        Set   Shell   Orbital            Exponent    Coefficient

                          1       1    2s               10.389228       0.396646
                                                         3.849621       0.208811
                                                         1.388401      -0.301641
                                                         0.496955      -0.274061
                                                         0.162492      -0.033677

                          1       2    3s               10.389228       0.303673
                                                         3.849621       0.240943
                                                         1.388401      -0.313066
                                                         0.496955      -0.043055
                                                         0.162492       0.213991

                          1       3    3px              10.389228      -1.530415
                                                         3.849621      -1.371928
                                                         1.388401      -0.761951
                                                         0.496955      -0.253695
                                                         0.162492      -0.035541
                          1       3    3py              10.389228      -1.530415
                                                         3.849621      -1.371928
                                                         1.388401      -0.761951
                                                         0.496955      -0.253695
                                                         0.162492      -0.035541
                          1       3    3pz              10.389228      -1.530415
                                                         3.849621      -1.371928
                                                         1.388401      -0.761951
                                                         0.496955      -0.253695
                                                         0.162492      -0.035541

                          1       4    4px              10.389228      -0.565392
                                                         3.849621      -0.038231
                                                         1.388401      -0.382373
                                                         0.496955       0.179070
                                                         0.162492       0.122714
                          1       4    4py              10.389228      -0.565392
                                                         3.849621      -0.038231
                                                         1.388401      -0.382373
                                                         0.496955       0.179070
                                                         0.162492       0.122714
                          1       4    4pz              10.389228      -0.565392
                                                         3.849621      -0.038231
                                                         1.388401      -0.382373
                                                         0.496955       0.179070
                                                         0.162492       0.122714

     GTH Potential information for                                   GTH-BLYP-q6

       Description:                       Goedecker-Teter-Hutter pseudopotential
                                           Goedecker et al., PRB 54, 1703 (1996)
                                          Hartwigsen et al., PRB 58, 3641 (1998)
                                                      Krack, TCA 114, 145 (2005)

       Gaussian exponent of the core charge distribution:               8.438331
       Electronic configuration (s p d ...):                               2   4

       Parameters of the local part of the GTH pseudopotential:

                          rloc        C1          C2          C3          C4
                        0.243420  -16.991892    2.566142

       Parameters of the non-local part of the GTH pseudopotential:

                   l      r(l)      h(i,j,l)

                   0    0.220831   18.388851
                   1    0.217201

  3. Atomic kind: H                                     Number of atoms:      42

     Orbital Basis Set                                                   mod-DZV

       Number of orbital shell sets:                                           1
       Number of orbital shells:                                               2
       Number of primitive Cartesian functions:                                5
       Number of Cartesian basis functions:                                    2
       Number of spherical basis functions:                                    2
       Norm type:                                                              2

       Normalised Cartesian orbitals:

                        Set   Shell   Orbital            Exponent    Coefficient

                          1       1    2s               10.068468      -0.133023
                                                         2.680223      -0.177618
                                                         0.791502      -0.258419
                                                         0.239116      -0.107525
                                                         0.082193      -0.014019

                          1       2    3s               10.068468       0.344673
                                                         2.680223       1.819821
                                                         0.791502      -0.999069
                                                         0.239116       0.017430
                                                         0.082193       0.082660

     GTH Potential information for                                   GTH-BLYP-q1

       Description:                       Goedecker-Teter-Hutter pseudopotential
                                           Goedecker et al., PRB 54, 1703 (1996)
                                          Hartwigsen et al., PRB 58, 3641 (1998)
                                                      Krack, TCA 114, 145 (2005)

       Gaussian exponent of the core charge distribution:              12.500000
       Electronic configuration (s p d ...):                                   1

       Parameters of the local part of the GTH pseudopotential:

                          rloc        C1          C2          C3          C4
                        0.200000   -4.195961    0.730498


 MOLECULE KIND INFORMATION


 All atoms are their own molecule, skipping detailed information


 TOTAL NUMBERS AND MAXIMUM NUMBERS

  Total number of            - Atomic kinds:                                   3
                             - Atoms:                                         77
                             - Shell sets:                                    77
                             - Shells:                                       245
                             - Primitive Cartesian functions:                392
                             - Cartesian basis functions:                    455
                             - Spherical basis functions:                    441

  Maximum angular momentum of- Orbital basis functions:                        2
                             - Local part of the GTH pseudopotential:          2
                             - Non-local part of the GTH pseudopotential:      3


 MODULE QUICKSTEP:  ATOMIC COORDINATES IN angstrom

  Atom  Kind  Element       X           Y           Z          Z(eff)       Mass

       1     1 Fe  26   18.335081    0.000003    0.000037     16.00      55.8450
       2     1 Fe  26   15.275450   -0.000001    0.000111     16.00      55.8450
       3     1 Fe  26   12.208880   -0.000014   -0.000068     16.00      55.8450
       4     1 Fe  26    9.152660   -0.000001   -0.000046     16.00      55.8450
       5     1 Fe  26    6.126457    0.000016    0.000158     16.00      55.8450
       6     1 Fe  26    3.080072    0.000004    0.000041     16.00      55.8450
       7     1 Fe  26    0.010024   -0.000005   -0.000000     16.00      55.8450
       8     2 O    8   18.333012    0.000001    2.143019      6.00      15.9994
       9     2 O    8   18.332928    0.000004   -2.142985      6.00      15.9994
      10     2 O    8   19.855702   -1.261072   -0.000041      6.00      15.9994
      11     2 O    8   19.855707    1.261069   -0.000059      6.00      15.9994
      12     2 O    8   15.282930   -0.000110    2.146267      6.00      15.9994
      13     2 O    8   15.282870    0.000123   -2.146084      6.00      15.9994
      14     2 O    8   16.811364   -1.261056   -0.000017      6.00      15.9994
      15     2 O    8   16.811361    1.261063    0.000073      6.00      15.9994
      16     2 O    8   12.247491    0.000509    2.159382      6.00      15.9994
      17     2 O    8   12.247683   -0.000544   -2.159578      6.00      15.9994
      18     2 O    8   13.771270   -1.259941   -0.000094      6.00      15.9994
      19     2 O    8   13.771270    1.259916    0.000131      6.00      15.9994
      20     2 O    8    9.194516   -0.001250    2.220669      6.00      15.9994
      21     2 O    8    9.194389    0.001253   -2.220795      6.00      15.9994
      22     2 O    8   10.765770   -1.284877    0.001804      6.00      15.9994
      23     2 O    8   10.765779    1.284844   -0.002272      6.00      15.9994
      24     2 O    8    6.098627    0.000710    2.245009      6.00      15.9994
      25     2 O    8    6.098722   -0.000669   -2.244670      6.00      15.9994
      26     2 O    8    7.667180   -1.325142    0.001734      6.00      15.9994
      27     2 O    8    7.667194    1.325175   -0.001573      6.00      15.9994
      28     2 O    8    3.029092   -0.000227    2.163789      6.00      15.9994
      29     2 O    8    3.029194    0.000218   -2.163723      6.00      15.9994
      30     2 O    8    4.500583   -1.298200   -0.000401      6.00      15.9994
      31     2 O    8    4.500586    1.298232    0.000594      6.00      15.9994
      32     2 O    8   -0.003947    0.000007    2.147730      6.00      15.9994
      33     2 O    8   -0.004010   -0.000015   -2.147779      6.00      15.9994
      34     2 O    8    1.508954   -1.259230   -0.000131      6.00      15.9994
      35     2 O    8    1.508947    1.259219   -0.000040      6.00      15.9994
      36     3 H    1   18.340121   -0.794370   -2.689071      1.00       1.0079
      37     3 H    1   18.340000    0.794381   -2.689055      1.00       1.0079
      38     3 H    1   18.340155   -0.794398    2.689058      1.00       1.0079
      39     3 H    1   18.340271    0.794394    2.689071      1.00       1.0079
      40     3 H    1   19.864818   -2.221128   -0.000005      1.00       1.0079
      41     3 H    1   19.864829    2.221125   -0.000020      1.00       1.0079
      42     3 H    1   15.198276   -0.793997   -2.686196      1.00       1.0079
      43     3 H    1   15.197738    0.794150   -2.686197      1.00       1.0079
      44     3 H    1   15.197918   -0.794157    2.686378      1.00       1.0079
      45     3 H    1   15.198418    0.794025    2.686375      1.00       1.0079
      46     3 H    1   16.805339   -2.221171   -0.000003      1.00       1.0079
      47     3 H    1   16.805342    2.221180    0.000032      1.00       1.0079
      48     3 H    1   12.098246   -0.794823   -2.685760      1.00       1.0079
      49     3 H    1   12.094806    0.793771   -2.684548      1.00       1.0079
      50     3 H    1   12.094588   -0.793808    2.684323      1.00       1.0079
      51     3 H    1   12.097975    0.794833    2.685459      1.00       1.0079
      52     3 H    1   13.745106   -2.219201    0.000580      1.00       1.0079
      53     3 H    1   13.745051    2.219173   -0.000308      1.00       1.0079
      54     3 H    1    9.089359   -0.794635   -2.746865      1.00       1.0079
      55     3 H    1    9.090046    0.796328   -2.748288      1.00       1.0079
      56     3 H    1    9.089838   -0.796361    2.748084      1.00       1.0079
      57     3 H    1    9.089084    0.794662    2.746683      1.00       1.0079
      58     3 H    1   10.725406   -2.242019   -0.001389      1.00       1.0079
      59     3 H    1   10.725470    2.241986    0.000766      1.00       1.0079
      60     3 H    1    6.162487   -0.796235   -2.777819      1.00       1.0079
      61     3 H    1    6.166140    0.795010   -2.776465      1.00       1.0079
      62     3 H    1    6.165795   -0.795011    2.776778      1.00       1.0079
      63     3 H    1    6.162141    0.796265    2.778217      1.00       1.0079
      64     3 H    1    7.659867   -2.280695   -0.000668      1.00       1.0079
      65     3 H    1    7.659906    2.280729    0.000993      1.00       1.0079
      66     3 H    1    3.182978   -0.794546   -2.687504      1.00       1.0079
      67     3 H    1    3.182888    0.794918   -2.687679      1.00       1.0079
      68     3 H    1    3.182805   -0.794969    2.687681      1.00       1.0079
      69     3 H    1    3.182951    0.794573    2.687494      1.00       1.0079
      70     3 H    1    4.539878   -2.254818    0.000701      1.00       1.0079
      71     3 H    1    4.539814    2.254853   -0.000499      1.00       1.0079
      72     3 H    1    0.093427   -0.793984   -2.685866      1.00       1.0079
      73     3 H    1    0.093303    0.793983   -2.685845      1.00       1.0079
      74     3 H    1    0.093442   -0.794025    2.685729      1.00       1.0079
      75     3 H    1    0.093614    0.794008    2.685740      1.00       1.0079
      76     3 H    1    1.540781   -2.218133   -0.000205      1.00       1.0079
      77     3 H    1    1.540783    2.218120    0.000021      1.00       1.0079




 SCF PARAMETERS         Density guess:                                   RESTART
                        --------------------------------------------------------
                        max_scf:                                            1000
                        max_scf_history:                                       0
                        max_diis:                                              4
                        --------------------------------------------------------
                        eps_scf:                                        1.00E-06
                        eps_scf_history:                                0.00E+00
                        eps_diis:                                       1.00E-01
                        eps_eigval:                                     1.00E-05
                        --------------------------------------------------------
                        level_shift [a.u.]:                                 0.00
                        --------------------------------------------------------
                        Outer loop SCF in use 
                        No variables optimised in outer loop
                        eps_scf                                         1.00E-06
                        max_scf                                              500
                        No outer loop optimization
                        step_size                                       5.00E-01

 PW_GRID| Information for grid number                                          1
 PW_GRID| Grid distributed over                                   144 processors
 PW_GRID| Real space group dimensions                                   144    1
 PW_GRID| the grid is blocked:                                                NO
 PW_GRID| Cutoff [a.u.]                                                    250.0
 PW_GRID| spherical cutoff:                                                   NO
 PW_GRID|   Bounds   1           -144     143                Points:         288
 PW_GRID|   Bounds   2           -240     239                Points:         480
 PW_GRID|   Bounds   3           -240     239                Points:         480
 PW_GRID| Volume element (a.u.^3)  0.2664E-02     Volume (a.u.^3)    176783.5904
 PW_GRID| Grid span                                                    FULLSPACE
 PW_GRID|   Distribution                         Average         Max         Min
 PW_GRID|   G-Vectors                           460800.0      460800      460800
 PW_GRID|   G-Rays                                1600.0        1600        1600
 PW_GRID|   Real Space Points                   460800.0      460800      460800

 PW_GRID| Information for grid number                                          2
 PW_GRID| Grid distributed over                                   144 processors
 PW_GRID| Real space group dimensions                                   144    1
 PW_GRID| the grid is blocked:                                                NO
 PW_GRID| Cutoff [a.u.]                                                     83.3
 PW_GRID| spherical cutoff:                                                   NO
 PW_GRID|   Bounds   1            -84      83                Points:         168
 PW_GRID|   Bounds   2           -137     137                Points:         275
 PW_GRID|   Bounds   3           -137     137                Points:         275
 PW_GRID| Volume element (a.u.^3)  0.1391E-01     Volume (a.u.^3)    176783.5904
 PW_GRID| Grid span                                                    FULLSPACE
 PW_GRID|   Distribution                         Average         Max         Min
 PW_GRID|   G-Vectors                            88229.2       88368       88032
 PW_GRID|   G-Rays                                 525.2         526         524
 PW_GRID|   Real Space Points                    88229.2      151250       75625

 PW_GRID| Information for grid number                                          3
 PW_GRID| Grid distributed over                                   144 processors
 PW_GRID| Real space group dimensions                                    12   12
 PW_GRID| the grid is blocked:                                                NO
 PW_GRID| Cutoff [a.u.]                                                     27.8
 PW_GRID| spherical cutoff:                                                   NO
 PW_GRID|   Bounds   1            -48      47                Points:          96
 PW_GRID|   Bounds   2            -80      79                Points:         160
 PW_GRID|   Bounds   3            -80      79                Points:         160
 PW_GRID| Volume element (a.u.^3)  0.7193E-01     Volume (a.u.^3)    176783.5904
 PW_GRID| Grid span                                                    FULLSPACE
 PW_GRID|   Distribution                         Average         Max         Min
 PW_GRID|   G-Vectors                            17066.7       17280       16896
 PW_GRID|   G-Rays                                 177.8         180         176
 PW_GRID|   Real Space Points                    17066.7       17920       16640

 PW_GRID| Information for grid number                                          4
 PW_GRID| Grid distributed over                                   144 processors
 PW_GRID| Real space group dimensions                                    12   12
 PW_GRID| the grid is blocked:                                                NO
 PW_GRID| Cutoff [a.u.]                                                      9.3
 PW_GRID| spherical cutoff:                                                   NO
 PW_GRID|   Bounds   1            -27      27                Points:          55
 PW_GRID|   Bounds   2            -48      47                Points:          96
 PW_GRID|   Bounds   3            -48      47                Points:          96
 PW_GRID| Volume element (a.u.^3)  0.3488         Volume (a.u.^3)    176783.5904
 PW_GRID| Grid span                                                    FULLSPACE
 PW_GRID|   Distribution                         Average         Max         Min
 PW_GRID|   G-Vectors                             3520.0        3575        3465
 PW_GRID|   G-Rays                                  64.0          65          63
 PW_GRID|   Real Space Points                     3520.0        3840        3072

 PW_GRID| Information for grid number                                          5
 PW_GRID| Grid distributed over                                   144 processors
 PW_GRID| Real space group dimensions                                    12   12
 PW_GRID| the grid is blocked:                                                NO
 PW_GRID| Cutoff [a.u.]                                                      3.1
 PW_GRID| spherical cutoff:                                                   NO
 PW_GRID|   Bounds   1            -16      15                Points:          32
 PW_GRID|   Bounds   2            -27      26                Points:          54
 PW_GRID|   Bounds   3            -27      26                Points:          54
 PW_GRID| Volume element (a.u.^3)   1.895         Volume (a.u.^3)    176783.5904
 PW_GRID| Grid span                                                    FULLSPACE
 PW_GRID|   Distribution                         Average         Max         Min
 PW_GRID|   G-Vectors                              648.0         704         608
 PW_GRID|   G-Rays                                  20.2          22          19
 PW_GRID|   Real Space Points                      648.0         810         432

 POISSON| Solver                                                        PERIODIC
 POISSON| Periodicity                                                        XYZ

 RS_GRID| Information for grid number                                          1
 RS_GRID|   Bounds   1           -144     143                Points:         288
 RS_GRID|   Bounds   2           -240     239                Points:         480
 RS_GRID|   Bounds   3           -240     239                Points:         480
 RS_GRID| Real space distribution over                                  4 groups
 RS_GRID| Real space distribution along direction                              1
 RS_GRID| Border size                                                         26
 RS_GRID| Real space distribution over                                  6 groups
 RS_GRID| Real space distribution along direction                              2
 RS_GRID| Border size                                                         26
 RS_GRID| Real space distribution over                                  6 groups
 RS_GRID| Real space distribution along direction                              3
 RS_GRID| Border size                                                         26
 RS_GRID|   Distribution                         Average         Max         Min
 RS_GRID|   Planes                                 124.0         124         124
 RS_GRID|   Distribution                         Average         Max         Min
 RS_GRID|   Planes                                 132.0         132         132
 RS_GRID|   Distribution                         Average         Max         Min
 RS_GRID|   Planes                                 132.0         132         132

 RS_GRID| Information for grid number                                          2
 RS_GRID|   Bounds   1            -84      83                Points:         168
 RS_GRID|   Bounds   2           -137     137                Points:         275
 RS_GRID|   Bounds   3           -137     137                Points:         275
 RS_GRID| Real space distribution over                                  4 groups
 RS_GRID| Real space distribution along direction                              1
 RS_GRID| Border size                                                         27
 RS_GRID| Real space distribution over                                  6 groups
 RS_GRID| Real space distribution along direction                              2
 RS_GRID| Border size                                                         27
 RS_GRID| Real space distribution over                                  6 groups
 RS_GRID| Real space distribution along direction                              3
 RS_GRID| Border size                                                         27
 RS_GRID|   Distribution                         Average         Max         Min
 RS_GRID|   Planes                                  96.0          96          96
 RS_GRID|   Distribution                         Average         Max         Min
 RS_GRID|   Planes                                  99.8         100          99
 RS_GRID|   Distribution                         Average         Max         Min
 RS_GRID|   Planes                                  99.8         100          99

 RS_GRID| Information for grid number                                          3
 RS_GRID|   Bounds   1            -48      47                Points:          96
 RS_GRID|   Bounds   2            -80      79                Points:         160
 RS_GRID|   Bounds   3            -80      79                Points:         160
 RS_GRID| Real space fully replicated
 RS_GRID| Group size                                                           1

 RS_GRID| Information for grid number                                          4
 RS_GRID|   Bounds   1            -27      27                Points:          55
 RS_GRID|   Bounds   2            -48      47                Points:          96
 RS_GRID|   Bounds   3            -48      47                Points:          96
 RS_GRID| Real space fully replicated
 RS_GRID| Group size                                                           1

 RS_GRID| Information for grid number                                          5
 RS_GRID|   Bounds   1            -16      15                Points:          32
 RS_GRID|   Bounds   2            -27      26                Points:          54
 RS_GRID|   Bounds   3            -27      26                Points:          54
 RS_GRID| Real space fully replicated
 RS_GRID| Group size                                                           1

 DISTRIBUTION OF THE PARTICLES (ROWS)
              Process row      Number of particles         Number of matrix rows
                        0                        7                            -1
                        1                        7                            -1
                        2                        6                            -1
                        3                        7                            -1
                        4                        7                            -1
                        5                        6                            -1
                        6                        7                            -1
                        7                        7                            -1
                        8                        4                            -1
                        9                        7                            -1
                       10                        6                            -1
                       11                        6                            -1
                      Sum                       77                            -1

 DISTRIBUTION OF THE PARTICLES (COLUMNS)
              Process col      Number of particles      Number of matrix columns
                        0                        7                            -1
                        1                        7                            -1
                        2                        6                            -1
                        3                        7                            -1
                        4                        7                            -1
                        5                        6                            -1
                        6                        7                            -1
                        7                        7                            -1
                        8                        4                            -1
                        9                        7                            -1
                       10                        6                            -1
                       11                        6                            -1
                      Sum                       77                            -1

  HFX_INFO| Replica ID:                                                        1
  HFX_INFO| EPS_SCHWARZ:                                                 1.0E-10
  HFX_INFO| EPS_SCHWARZ_FORCES                                           1.0E-06
  HFX_INFO| EPS_STORAGE_SCALING:                                         1.0E+00
  HFX_INFO| NBINS:                                                            64
  HFX_INFO| BLOCK_SIZE:                                                        1
  HFX_INFO| FRACTION:                                               1.0000000000
  HFX_INFO| Interaction Potential:                                     TRUNCATED
  HFX_INFO| Cutoff Radius [angstrom]:                              10.6711000000
  HFX_INFO| NUMBER_OF_SHELLS:                                               AUTO
  HFX_INFO| Number of periodic shells considered:                             -1
  HFX_INFO| Number of periodic cells considered:                              27


 DISTRIBUTION OF THE NEIGHBOR LISTS
              Total number of particle pairs:                               4179
              Total number of matrix elements:                            134022
              Average number of particle pairs:                               30
              Maximum number of particle pairs:                               47
              Average number of matrix element:                              931
              Maximum number of matrix elements:                            1834


 DISTRIBUTION OF THE OVERLAP MATRIX
              Number  of non-zero blocks:                                   3003
              Percentage non-zero blocks:                                 100.00
              Average number of blocks per CPU:                               21
              Maximum number of blocks per CPU:                               32
              Average number of matrix elements per CPU:                     701
              Maximum number of matrix elements per CPU:                    1063

 Spin 1

 Number of electrons:                                                        175
 Number of occupied orbitals:                                                175
 Number of molecular orbitals:                                               175

 Spin 2

 Number of electrons:                                                        141
 Number of occupied orbitals:                                                141
 Number of molecular orbitals:                                               141

 Number of orbital functions:                                                441
 Number of independent orbital functions:                                    441

 Extrapolation method: initial_guess


 SCF WAVEFUNCTION OPTIMIZATION

  ----------------------------------- OT ---------------------------------------
  Minimizer      : CG                  : conjugate gradient
  Preconditioner : FULL_KINETIC        : inversion of T + eS
  Precond_solver : DEFAULT
  Line search    : 2PNT                : 2 energies, one gradient
  stepsize       :    0.15000000                  energy_gap     :    0.20000000
  eps_taylor     :   0.10000E-15                  max_taylor     :             4
  ----------------------------------- OT ---------------------------------------

  Step     Update method      Time    Convergence         Total energy    Change
  ------------------------------------------------------------------------------

  HFX_MEM_INFO| Est. max. program size before HFX [MiB]:                     289
  HFX_MEM_INFO| Number of cart. primitive ERI's calculated:          75146009047
  HFX_MEM_INFO| Number of sph. ERI's calculated:                      4839083418
  HFX_MEM_INFO| Number of sph. ERI's stored in-core:                  4839083418
  HFX_MEM_INFO| Number of sph. ERI's stored on disk:                           0
  HFX_MEM_INFO| Number of sph. ERI's calculated on the fly:                    0
  HFX_MEM_INFO| Total memory consumption ERI's RAM [MiB]:                  12391
  HFX_MEM_INFO| Whereof max-vals [MiB]:                                        4
  HFX_MEM_INFO| Total compression factor ERI's RAM:                         2.98
  HFX_MEM_INFO| Total memory consumption ERI's disk [MiB]:                     0
  HFX_MEM_INFO| Total compression factor ERI's disk:                        0.00
  HFX_MEM_INFO| Size of density/Fock matrix [MiB]:                             0
  HFX_MEM_INFO| Size of buffers [MiB]:                                         1
  HFX_MEM_INFO| Number of periodic image cells considered:                    27
  HFX_MEM_INFO| Est. max. program size after HFX  [MiB]:                     379

     1 OT CG       0.15E+00   49.2     0.00008521     -1322.6434158067 -1.32E+03
     2 OT LS       0.60E+00    0.9                    -1322.6435546826
     3 OT CG       0.60E+00    1.4     0.00004405     -1322.6438164234 -4.01E-04
     4 OT LS       0.60E+00    0.9                    -1322.6438969646
     5 OT CG       0.60E+00    1.5     0.00004864     -1322.6438969686 -8.05E-05
     6 OT LS       0.36E+00    0.8                    -1322.6439300342
     7 OT CG       0.36E+00    1.4     0.00003419     -1322.6439560077 -5.90E-05
     8 OT LS       0.24E+00    0.8                    -1322.6439705310
     9 OT CG       0.24E+00    1.5     0.00002153     -1322.6439754277 -1.94E-05
    10 OT LS       0.28E+00    0.9                    -1322.6439843029
    11 OT CG       0.28E+00    1.5     0.00001571     -1322.6439845144 -9.09E-06
    12 OT LS       0.40E+00    0.9                    -1322.6439907759
    13 OT CG       0.40E+00    1.5     0.00001557     -1322.6439913688 -6.85E-06
    14 OT LS       0.33E+00    0.8                    -1322.6439966585
    15 OT CG       0.33E+00    1.4     0.00001102     -1322.6439969137 -5.54E-06
    16 OT LS       0.30E+00    0.8                    -1322.6439994164
    17 OT CG       0.30E+00    1.5     0.00000784     -1322.6439994407 -2.53E-06
    18 OT LS       0.42E+00    1.0                    -1322.6440010844
    19 OT CG       0.42E+00    1.7     0.00000828     -1322.6440012274 -1.79E-06
    20 OT LS       0.44E+00    0.8                    -1322.6440033201
    21 OT CG       0.44E+00    1.4     0.00000784     -1322.6440033253 -2.10E-06
    22 OT LS       0.37E+00    0.9                    -1322.6440048504
    23 OT CG       0.37E+00    1.4     0.00000602     -1322.6440049062 -1.58E-06
    24 OT LS       0.32E+00    0.8                    -1322.6440057039
    25 OT CG       0.32E+00    1.5     0.00000492     -1322.6440057205 -8.14E-07
    26 OT LS       0.37E+00    0.8                    -1322.6440063298
    27 OT CG       0.37E+00    1.4     0.00000455     -1322.6440063385 -6.18E-07
    28 OT LS       0.38E+00    0.9                    -1322.6440068866
    29 OT CG       0.38E+00    1.4     0.00000387     -1322.6440068874 -5.49E-07
    30 OT LS       0.29E+00    1.0                    -1322.6440071673
    31 OT CG       0.29E+00    1.5     0.00000276     -1322.6440071940 -3.07E-07
    32 OT LS       0.29E+00    0.9                    -1322.6440073453
    33 OT CG       0.29E+00    1.5     0.00000207     -1322.6440073454 -1.51E-07
    34 OT LS       0.36E+00    0.8                    -1322.6440074496
    35 OT CG       0.36E+00    1.5     0.00000176     -1322.6440074547 -1.09E-07
    36 OT LS       0.39E+00    0.8                    -1322.6440075388
    37 OT CG       0.39E+00    1.5     0.00000159     -1322.6440075392 -8.45E-08
    38 OT LS       0.36E+00    0.8                    -1322.6440076035
    39 OT CG       0.36E+00    1.6     0.00000141     -1322.6440076038 -6.46E-08
    40 OT LS       0.41E+00    0.8                    -1322.6440076598
    41 OT CG       0.41E+00    1.4     0.00000141     -1322.6440076604 -5.66E-08
    42 OT LS       0.51E+00    0.9                    -1322.6440077281
    43 OT CG       0.51E+00    1.6     0.00000160     -1322.6440077311 -7.07E-08
    44 OT LS       0.44E+00    1.0                    -1322.6440078076
    45 OT CG       0.44E+00    1.6     0.00000158     -1322.6440078097 -7.86E-08
    46 OT LS       0.38E+00    0.9                    -1322.6440078752
    47 OT CG       0.38E+00    1.5     0.00000145     -1322.6440078767 -6.70E-08
    48 OT LS       0.41E+00    0.8                    -1322.6440079370
    49 OT CG       0.41E+00    1.4     0.00000131     -1322.6440079374 -6.06E-08
    50 OT LS       0.53E+00    0.9                    -1322.6440079974
    51 OT CG       0.53E+00    1.4     0.00000148     -1322.6440080005 -6.31E-08
    52 OT LS       0.37E+00    0.8                    -1322.6440080471
    53 OT CG       0.37E+00    1.5     0.00000156     -1322.6440080573 -5.68E-08
    54 OT LS       0.38E+00    0.8                    -1322.6440081220
    55 OT CG       0.38E+00    1.5     0.00000160     -1322.6440081221 -6.48E-08
    56 OT LS       0.61E+00    0.9                    -1322.6440082152
    57 OT CG       0.61E+00    1.4     0.00000204     -1322.6440082301 -1.08E-07
    58 OT LS       0.56E+00    0.9                    -1322.6440083893
    59 OT CG       0.56E+00    1.4     0.00000242     -1322.6440083907 -1.61E-07
    60 OT LS       0.41E+00    0.9                    -1322.6440085360
    61 OT CG       0.41E+00    1.4     0.00000242     -1322.6440085575 -1.67E-07
    62 OT LS       0.36E+00    0.9                    -1322.6440087024
    63 OT CG       0.36E+00    1.4     0.00000215     -1322.6440087048 -1.47E-07
    64 OT LS       0.42E+00    0.9                    -1322.6440088381
    65 OT CG       0.42E+00    1.5     0.00000198     -1322.6440088408 -1.36E-07
    66 OT LS       0.43E+00    0.8                    -1322.6440089568
    67 OT CG       0.43E+00    1.4     0.00000183     -1322.6440089568 -1.16E-07
    68 OT LS       0.32E+00    0.8                    -1322.6440090246
    69 OT CG       0.32E+00    1.7     0.00000157     -1322.6440090324 -7.55E-08
    70 OT LS       0.34E+00    1.0                    -1322.6440090912
    71 OT CG       0.34E+00    1.4     0.00000143     -1322.6440090914 -5.90E-08
    72 OT LS       0.41E+00    0.8                    -1322.6440091477
    73 OT CG       0.41E+00    1.5     0.00000131     -1322.6440091491 -5.77E-08
    74 OT LS       0.43E+00    0.8                    -1322.6440092006
    75 OT CG       0.43E+00    1.4     0.00000118     -1322.6440092008 -5.17E-08
    76 OT LS       0.35E+00    0.9                    -1322.6440092326
    77 OT CG       0.35E+00    1.4     0.00000098     -1322.6440092346 -3.38E-08

  *** SCF run converged in    77 steps ***


  Electronic density on regular grids:       -315.9999999997        0.0000000003
  Core density on regular grids:              321.9999999999       -0.0000000001
  Total charge density on r-space grids:        6.0000000002
  Total charge density g-space grids:           6.0000000002

  Overlap energy of the core charge distribution:               0.00000112431109
  Self energy of the core charge distribution:              -2631.59580429473499
  Core Hamiltonian energy:                                    746.74638334184488
  Hartree energy:                                             754.63343408440210
  Exchange-correlation energy:                                  0.00000000000000
  Hartree-Fock Exchange energy:                              -192.42802349040005

  Total energy:                                             -1322.64400923457720

  outer SCF iter =    1 RMS gradient =   0.98E-06 energy =      -1322.6440092346
  outer SCF loop converged in   1 iterations or   77 steps


  Integrated absolute spin density  :                              34.3025056002
  Ideal and single determinant S**2 :                  306.000000     306.047544

 !-----------------------------------------------------------------------------!
                     Mulliken Population Analysis

 #  Atom  Element  Kind  Atomic population (alpha,beta) Net charge  Spin moment
       1     Fe       1         9.416204     4.676607     1.907189     4.739597
       2     Fe       1         9.416632     4.677963     1.905405     4.738670
       3     Fe       1         9.421965     4.689451     1.888584     4.732513
       4     Fe       1         9.430419     4.681860     1.887721     4.748559
       5     Fe       1         9.158501     5.232583     1.608915     3.925918
       6     Fe       1         9.424966     4.700150     1.874885     4.724816
       7     Fe       1         9.418239     4.681209     1.900552     4.737029
       8     O        2         3.310138     3.288031    -0.598168     0.022107
       9     O        2         3.310130     3.288025    -0.598155     0.022105
      10     O        2         3.509105     3.408394    -0.917499     0.100710
      11     O        2         3.509104     3.408394    -0.917498     0.100711
      12     O        2         3.310190     3.288032    -0.598222     0.022159
      13     O        2         3.310177     3.288019    -0.598196     0.022158
      14     O        2         3.509032     3.407805    -0.916837     0.101227
      15     O        2         3.509033     3.407805    -0.916838     0.101227
      16     O        2         3.310801     3.288999    -0.599801     0.021802
      17     O        2         3.310802     3.289006    -0.599808     0.021796
      18     O        2         3.508792     3.407494    -0.916286     0.101297
      19     O        2         3.508791     3.407493    -0.916285     0.101298
      20     O        2         3.311022     3.293732    -0.604753     0.017290
      21     O        2         3.311001     3.293715    -0.604716     0.017286
      22     O        2         3.508679     3.410112    -0.918791     0.098567
      23     O        2         3.508677     3.410109    -0.918787     0.098568
      24     O        2         3.311446     3.308428    -0.619874     0.003018
      25     O        2         3.311429     3.308409    -0.619839     0.003020
      26     O        2         3.515774     3.429070    -0.944843     0.086704
      27     O        2         3.515774     3.429070    -0.944844     0.086704
      28     O        2         3.310127     3.290418    -0.600546     0.019709
      29     O        2         3.310114     3.290405    -0.600519     0.019709
      30     O        2         3.517202     3.427495    -0.944697     0.089707
      31     O        2         3.517201     3.427496    -0.944697     0.089706
      32     O        2         3.310037     3.288276    -0.598313     0.021761
      33     O        2         3.310028     3.288270    -0.598298     0.021758
      34     O        2         3.509117     3.409909    -0.919026     0.099207
      35     O        2         3.509116     3.409908    -0.919024     0.099208
      36     H        3         0.323554     0.322988     0.353458     0.000566
      37     H        3         0.323554     0.322989     0.353457     0.000566
      38     H        3         0.323549     0.322984     0.353467     0.000566
      39     H        3         0.323550     0.322984     0.353467     0.000566
      40     H        3         0.329579     0.326977     0.343443     0.002602
      41     H        3         0.329579     0.326977     0.343443     0.002602
      42     H        3         0.323604     0.323111     0.353285     0.000492
      43     H        3         0.323598     0.323106     0.353296     0.000493
      44     H        3         0.323591     0.323098     0.353310     0.000493
      45     H        3         0.323596     0.323104     0.353299     0.000492
      46     H        3         0.329183     0.326602     0.344215     0.002581
      47     H        3         0.329182     0.326602     0.344216     0.002581
      48     H        3         0.324002     0.323702     0.352296     0.000301
      49     H        3         0.323993     0.323703     0.352305     0.000290
      50     H        3         0.323989     0.323698     0.352313     0.000290
      51     H        3         0.323999     0.323699     0.352302     0.000300
      52     H        3         0.329588     0.327041     0.343371     0.002548
      53     H        3         0.329589     0.327041     0.343370     0.002548
      54     H        3         0.326946     0.326704     0.346350     0.000242
      55     H        3         0.326832     0.326572     0.346596     0.000260
      56     H        3         0.326821     0.326561     0.346618     0.000259
      57     H        3         0.326931     0.326689     0.346380     0.000242
      58     H        3         0.328789     0.325826     0.345385     0.002963
      59     H        3         0.328790     0.325827     0.345383     0.002963
      60     H        3         0.336797     0.336139     0.327064     0.000657
      61     H        3         0.336894     0.336242     0.326865     0.000652
      62     H        3         0.336889     0.336237     0.326874     0.000652
      63     H        3         0.336790     0.336132     0.327078     0.000658
      64     H        3         0.341260     0.340880     0.317860     0.000380
      65     H        3         0.341259     0.340881     0.317859     0.000378
      66     H        3         0.326986     0.326666     0.346348     0.000320
      67     H        3         0.326966     0.326644     0.346389     0.000322
      68     H        3         0.326960     0.326638     0.346402     0.000321
      69     H        3         0.326980     0.326660     0.346360     0.000320
      70     H        3         0.342916     0.341561     0.315523     0.001354
      71     H        3         0.342916     0.341561     0.315523     0.001355
      72     H        3         0.324261     0.323786     0.351953     0.000476
      73     H        3         0.324261     0.323786     0.351953     0.000475
      74     H        3         0.324255     0.323780     0.351965     0.000475
      75     H        3         0.324256     0.323780     0.351964     0.000475
      76     H        3         0.331600     0.328947     0.339453     0.002653
      77     H        3         0.331600     0.328947     0.339452     0.002653
 # Total charge and spin      175.000000   141.000000     6.000000    34.000000

 !-----------------------------------------------------------------------------!

 !-----------------------------------------------------------------------------!
                           Hirshfeld Charges

  #Atom  Element  Kind  Ref Charge     Population       Spin moment  Net charge
      1       Fe     1      16.000   10.755   6.028            4.727     -0.783
      2       Fe     1      16.000   10.757   6.031            4.727     -0.788
      3       Fe     1      16.000   10.762   6.042            4.720     -0.804
      4       Fe     1      16.000   10.666   5.928            4.738     -0.595
      5       Fe     1      16.000   10.431   6.545            3.886     -0.976
      6       Fe     1      16.000   10.766   6.054            4.713     -0.820
      7       Fe     1      16.000   10.760   6.035            4.725     -0.796
      8       O      2       6.000    3.366   3.339            0.027     -0.705
      9       O      2       6.000    3.366   3.339            0.027     -0.705
     10       O      2       6.000    3.158   3.055            0.103     -0.213
     11       O      2       6.000    3.158   3.055            0.103     -0.213
     12       O      2       6.000    3.367   3.340            0.027     -0.706
     13       O      2       6.000    3.367   3.340            0.027     -0.706
     14       O      2       6.000    3.158   3.054            0.103     -0.212
     15       O      2       6.000    3.158   3.054            0.103     -0.212
     16       O      2       6.000    3.371   3.344            0.026     -0.715
     17       O      2       6.000    3.371   3.344            0.026     -0.715
     18       O      2       6.000    3.159   3.056            0.103     -0.215
     19       O      2       6.000    3.159   3.056            0.103     -0.215
     20       O      2       6.000    3.388   3.367            0.021     -0.756
     21       O      2       6.000    3.388   3.367            0.021     -0.756
     22       O      2       6.000    3.165   3.064            0.101     -0.229
     23       O      2       6.000    3.165   3.064            0.101     -0.229
     24       O      2       6.000    3.398   3.384            0.014     -0.783
     25       O      2       6.000    3.398   3.384            0.014     -0.783
     26       O      2       6.000    3.175   3.086            0.089     -0.261
     27       O      2       6.000    3.175   3.086            0.089     -0.261
     28       O      2       6.000    3.373   3.348            0.025     -0.721
     29       O      2       6.000    3.373   3.348            0.025     -0.721
     30       O      2       6.000    3.171   3.078            0.093     -0.249
     31       O      2       6.000    3.171   3.078            0.093     -0.249
     32       O      2       6.000    3.367   3.341            0.026     -0.708
     33       O      2       6.000    3.367   3.341            0.026     -0.708
     34       O      2       6.000    3.160   3.059            0.102     -0.219
     35       O      2       6.000    3.160   3.059            0.102     -0.219
     36       H      3       1.000    0.201   0.200            0.000      0.599
     37       H      3       1.000    0.201   0.200            0.000      0.599
     38       H      3       1.000    0.201   0.200            0.000      0.599
     39       H      3       1.000    0.201   0.200            0.000      0.599
     40       H      3       1.000    0.204   0.202            0.003      0.594
     41       H      3       1.000    0.204   0.202            0.003      0.594
     42       H      3       1.000    0.201   0.200            0.000      0.599
     43       H      3       1.000    0.201   0.200            0.000      0.599
     44       H      3       1.000    0.201   0.200            0.000      0.599
     45       H      3       1.000    0.201   0.200            0.000      0.599
     46       H      3       1.000    0.204   0.201            0.003      0.595
     47       H      3       1.000    0.204   0.201            0.003      0.595
     48       H      3       1.000    0.201   0.201            0.000      0.598
     49       H      3       1.000    0.201   0.201            0.000      0.598
     50       H      3       1.000    0.201   0.201            0.000      0.598
     51       H      3       1.000    0.201   0.201            0.000      0.598
     52       H      3       1.000    0.204   0.202            0.003      0.594
     53       H      3       1.000    0.204   0.202            0.003      0.594
     54       H      3       1.000    0.202   0.202            0.000      0.596
     55       H      3       1.000    0.202   0.202            0.000      0.596
     56       H      3       1.000    0.202   0.202            0.000      0.596
     57       H      3       1.000    0.202   0.202            0.000      0.596
     58       H      3       1.000    0.204   0.201            0.003      0.596
     59       H      3       1.000    0.204   0.201            0.003      0.596
     60       H      3       1.000    0.207   0.206            0.000      0.587
     61       H      3       1.000    0.207   0.206            0.000      0.587
     62       H      3       1.000    0.207   0.206            0.000      0.587
     63       H      3       1.000    0.207   0.206            0.000      0.587
     64       H      3       1.000    0.210   0.208            0.001      0.582
     65       H      3       1.000    0.210   0.208            0.001      0.582
     66       H      3       1.000    0.202   0.202            0.000      0.595
     67       H      3       1.000    0.202   0.202            0.000      0.595
     68       H      3       1.000    0.202   0.202            0.000      0.595
     69       H      3       1.000    0.202   0.202            0.000      0.595
     70       H      3       1.000    0.210   0.208            0.002      0.581
     71       H      3       1.000    0.210   0.208            0.002      0.581
     72       H      3       1.000    0.201   0.201            0.000      0.598
     73       H      3       1.000    0.201   0.201            0.000      0.598
     74       H      3       1.000    0.201   0.201            0.000      0.598
     75       H      3       1.000    0.201   0.201            0.000      0.598
     76       H      3       1.000    0.205   0.202            0.003      0.592
     77       H      3       1.000    0.205   0.202            0.003      0.592

  Total Charge                                                            6.013
 !-----------------------------------------------------------------------------!
  
  Eigenvalues of the occupied subspace spin            1
 ---------------------------------------------
      -5.10902643     -5.10620414     -5.10448944     -5.09353258
      -5.09117884     -5.05003088     -4.69868124     -3.60520749
      -3.60327833     -3.60241692     -3.60233625     -3.60086255
      -3.60046979     -3.59959662     -3.59872563     -3.59778090
      -3.58879919     -3.58840004     -3.58731438     -3.58600252
      -3.58551332     -3.58452673     -3.54606215     -3.54477565
      -3.54314944     -3.24680839     -3.17729291     -3.16958623
      -1.74791316     -1.74514745     -1.74431297     -1.74209637
      -1.74201229     -1.73983642     -1.73191590     -1.72957641
      -1.72742365     -1.72592358     -1.70954776     -1.70754319
[...]
 flops     8 x     2 x    13             19079424     100.0%      0.0%      0.0%
 flops     2 x     8 x    13             19079424     100.0%      0.0%      0.0%
 flops    15 x    15 x    32             19224000     100.0%      0.0%      0.0%
 flops    15 x    32 x    15             19224000     100.0%      0.0%      0.0%
 flops    32 x    15 x    15             19224000     100.0%      0.0%      0.0%
 flops    19 x    19 x    13             20499024     100.0%      0.0%      0.0%
 flops    36 x    13 x    36             21565440     100.0%      0.0%      0.0%
 flops     8 x     2 x    15             22014720     100.0%      0.0%      0.0%
 flops     2 x     8 x    15             22014720     100.0%      0.0%      0.0%
 flops     2 x    13 x     2             22014720     100.0%      0.0%      0.0%
 flops    15 x    15 x    37             22494150     100.0%      0.0%      0.0%
 flops    37 x    13 x    13             23548798     100.0%      0.0%      0.0%
 flops    19 x    19 x    15             23652720     100.0%      0.0%      0.0%
 flops    13 x    32 x    38             24407552     100.0%      0.0%      0.0%
 flops    32 x    13 x    38             24407552     100.0%      0.0%      0.0%
 flops    36 x    15 x    36             24883200     100.0%      0.0%      0.0%
 flops     2 x    15 x     2             25189920     100.0%      0.0%      0.0%
 flops     8 x    19 x    13             30209088     100.0%      0.0%      0.0%
 flops    19 x     8 x    13             30209088     100.0%      0.0%      0.0%
 flops    37 x    15 x    15             31351950     100.0%      0.0%      0.0%
 flops    38 x    32 x    38             33269760     100.0%      0.0%      0.0%
 flops    38 x    13 x    32             34018816     100.0%      0.0%      0.0%
 flops    38 x    32 x    13             34018816     100.0%      0.0%      0.0%
 flops     8 x    19 x    15             34856640     100.0%      0.0%      0.0%
 flops     2 x    13 x    19             34856640     100.0%      0.0%      0.0%
 flops    19 x     8 x    15             34856640     100.0%      0.0%      0.0%
 flops    19 x    13 x     2             34856640     100.0%      0.0%      0.0%
 flops    15 x    32 x    38             35203200     100.0%      0.0%      0.0%
 flops    32 x    15 x    38             35203200     100.0%      0.0%      0.0%
 flops    36 x    13 x    37             38787840     100.0%      0.0%      0.0%
 flops    37 x    13 x    36             38787840     100.0%      0.0%      0.0%
 flops     2 x    15 x    19             39884040     100.0%      0.0%      0.0%
 flops    19 x    15 x     2             39884040     100.0%      0.0%      0.0%
 flops    36 x    15 x    37             44755200     100.0%      0.0%      0.0%
 flops    37 x    15 x    36             44755200     100.0%      0.0%      0.0%
 flops    38 x    15 x    32             49065600     100.0%      0.0%      0.0%
 flops    38 x    32 x    15             49065600     100.0%      0.0%      0.0%
 flops     8 x     8 x    13             52695552     100.0%      0.0%      0.0%
 flops    19 x    13 x    19             55189680     100.0%      0.0%      0.0%
 flops     2 x    13 x     8             58705920     100.0%      0.0%      0.0%
 flops     8 x    13 x     2             58705920     100.0%      0.0%      0.0%
 flops     8 x     8 x    15             60802560     100.0%      0.0%      0.0%
 flops    19 x    15 x    19             63149730     100.0%      0.0%      0.0%
 flops     2 x    15 x     8             67173120     100.0%      0.0%      0.0%
 flops     8 x    15 x     2             67173120     100.0%      0.0%      0.0%
 flops    37 x    13 x    37             69764240     100.0%      0.0%      0.0%
 flops    37 x    15 x    37             80497200     100.0%      0.0%      0.0%
 flops    13 x    32 x    36             92491776     100.0%      0.0%      0.0%
 flops    32 x    13 x    36             92491776     100.0%      0.0%      0.0%
 flops     8 x    13 x    19             92951040     100.0%      0.0%      0.0%
 flops    19 x    13 x     8             92951040     100.0%      0.0%      0.0%
 flops     8 x    15 x    19            106357440     100.0%      0.0%      0.0%
 flops    19 x    15 x     8            106357440     100.0%      0.0%      0.0%
 flops    32 x    32 x    13            113737728     100.0%      0.0%      0.0%
 flops    13 x    32 x    32            113737728     100.0%      0.0%      0.0%
 flops    32 x    13 x    32            113737728     100.0%      0.0%      0.0%
 flops    36 x    32 x    38            126074880     100.0%      0.0%      0.0%
 flops    38 x    32 x    36            126074880     100.0%      0.0%      0.0%
 flops    36 x    13 x    32            128913408     100.0%      0.0%      0.0%
 flops    36 x    32 x    13            128913408     100.0%      0.0%      0.0%
 flops    15 x    32 x    36            133401600     100.0%      0.0%      0.0%
 flops    32 x    15 x    36            133401600     100.0%      0.0%      0.0%
 flops     8 x    13 x     8            156549120     100.0%      0.0%      0.0%
 flops     2 x     2 x    32            162279936     100.0%      0.0%      0.0%
 flops    13 x    32 x    37            166356736     100.0%      0.0%      0.0%
 flops    32 x    13 x    37            166356736     100.0%      0.0%      0.0%
 flops     8 x    15 x     8            179128320     100.0%      0.0%      0.0%
 flops    36 x    15 x    32            185932800     100.0%      0.0%      0.0%
 flops    36 x    32 x    15            185932800     100.0%      0.0%      0.0%
 flops    32 x    32 x    15            205056000     100.0%      0.0%      0.0%
 flops    15 x    32 x    32            205056000     100.0%      0.0%      0.0%
 flops    32 x    15 x    32            205056000     100.0%      0.0%      0.0%
 flops    37 x    32 x    38            226759680     100.0%      0.0%      0.0%
 flops    38 x    32 x    37            226759680     100.0%      0.0%      0.0%
 flops    37 x    32 x    13            231865088     100.0%      0.0%      0.0%
 flops    37 x    13 x    32            231865088     100.0%      0.0%      0.0%
 flops    15 x    32 x    37            239937600     100.0%      0.0%      0.0%
 flops    32 x    15 x    37            239937600     100.0%      0.0%      0.0%
 flops    19 x     2 x    32            250967808     100.0%      0.0%      0.0%
 flops     2 x    19 x    32            250967808     100.0%      0.0%      0.0%
 flops    37 x    32 x    15            334420800     100.0%      0.0%      0.0%
 flops    37 x    15 x    32            334420800     100.0%      0.0%      0.0%
 flops     8 x     2 x    32            422682624     100.0%      0.0%      0.0%
 flops     2 x     8 x    32            422682624     100.0%      0.0%      0.0%
 flops    19 x    19 x    32            454132224     100.0%      0.0%      0.0%
 flops    36 x    32 x    36            477757440     100.0%      0.0%      0.0%
 flops     2 x    32 x     2            485452800     100.0%      0.0%      0.0%
 flops    32 x    32 x    38            615821312     100.0%      0.0%      0.0%
 flops     8 x    19 x    32            669247488     100.0%      0.0%      0.0%
 flops    19 x     8 x    32            669247488     100.0%      0.0%      0.0%
 flops    19 x    32 x     2            768633600     100.0%      0.0%      0.0%
 flops     2 x    32 x    19            768633600     100.0%      0.0%      0.0%
 flops    38 x    32 x    32            858320896     100.0%      0.0%      0.0%
 flops    37 x    32 x    36            859299840     100.0%      0.0%      0.0%
 flops    36 x    32 x    37            859299840     100.0%      0.0%      0.0%
 flops     8 x     8 x    32           1167409152     100.0%      0.0%      0.0%
 flops    19 x    32 x    19           1217003200     100.0%      0.0%      0.0%
 flops     8 x    32 x     2           1294540800     100.0%      0.0%      0.0%
 flops     2 x    32 x     8           1294540800     100.0%      0.0%      0.0%
 flops    37 x    32 x    37           1545546240     100.0%      0.0%      0.0%
 flops    19 x    32 x     8           2049689600     100.0%      0.0%      0.0%
 flops     8 x    32 x    19           2049689600     100.0%      0.0%      0.0%
 flops    32 x    32 x    36           2333638656     100.0%      0.0%      0.0%
 flops    36 x    32 x    32           3252584448     100.0%      0.0%      0.0%
 flops    32 x    32 x    32           3307143168     100.0%      0.0%      0.0%
 flops     8 x    32 x     8           3452108800     100.0%      0.0%      0.0%
 flops    32 x    32 x    37           4197308416     100.0%      0.0%      0.0%
 flops    37 x    32 x    32           5850134528     100.0%      0.0%      0.0%
 flops inhomo. stacks                           0       0.0%      0.0%      0.0%
 flops total                        49.449703E+09     100.0%      0.0%      0.0%
 flops max/rank                      1.101880E+09     100.0%      0.0%      0.0%
 matmuls inhomo. stacks                         0       0.0%      0.0%      0.0%
 matmuls total                           10860718     100.0%      0.0%      0.0%
 number of processed stacks               2464394     100.0%      0.0%      0.0%
 average stack size                                     4.4       0.0       0.0
 marketing flops                    54.213583E+09
 -------------------------------------------------------------------------------
 # multiplications                           1937
 max memory usage/rank             440.590336E+06
 # max total images/rank                        1
 # max 3D layers                                1
 # MPI messages exchanged                 6136416
 MPI messages size (bytes):
  total size                        20.942436E+09
  min size                           0.000000E+00
  max size                          11.552000E+03
  average size                       3.412812E+03
 MPI breakdown and total messages size (bytes):
             size <=      128             3681634                        0
       128 < size <=     8192              795410               4625418072
      8192 < size <=    32768             1659372              16317017640
     32768 < size <=   131072                   0                        0
    131072 < size <=  4194304                   0                        0
   4194304 < size <= 16777216                   0                        0
  16777216 < size                               0                        0
 -------------------------------------------------------------------------------

 MEMORY| Estimated peak process memory [MiB]                                 421

 -------------------------------------------------------------------------------
 ----                             MULTIGRID INFO                            ----
 -------------------------------------------------------------------------------
 count for grid        1:        2403224          cutoff [a.u.]          250.00
 count for grid        2:         881857          cutoff [a.u.]           83.33
 count for grid        3:         416617          cutoff [a.u.]           27.78
 count for grid        4:         123223          cutoff [a.u.]            9.26
 count for grid        5:           1440          cutoff [a.u.]            3.09
 total gridlevel count  :        3826361

 -------------------------------------------------------------------------------
 -                                                                             -
 -                         MESSAGE PASSING PERFORMANCE                         -
 -                                                                             -
 -------------------------------------------------------------------------------

 ROUTINE             CALLS      AVE VOLUME [Bytes]
 MP_Group               30
 MP_Bcast             1081                 301698.
 MP_Allreduce         5880                    730.
 MP_Sync               703
 MP_Alltoall          7688                1935485.
 MP_ISendRecv       144716                  44316.
 MP_Wait            383372
 MP_comm_split           2
 MP_ISend           112792                  54677.
 MP_IRecv           112792                  54412.
 MP_Recv                88                  47628.
 MP_Memory           77494
 -------------------------------------------------------------------------------


 -------------------------------------------------------------------------------
 -                                                                             -
 -                           R E F E R E N C E S                               -
 -                                                                             -
 -------------------------------------------------------------------------------
 
 CP2K version 5.1, the CP2K developers group (2017).
 CP2K is freely available from https://www.cp2k.org/ .

 Schuett, Ole; Messmer, Peter; Hutter, Juerg; VandeVondele, Joost. 
 Electronic Structure Calculations on Graphics Processing Units, John Wiley & Sons, Ltd, 173-190 (2016). 
 GPU-Accelerated Sparse Matrix-Matrix Multiplication for Linear Scaling Density Functional Theory.
 http://dx.doi.org/10.1002/9781118670712.ch8


 Borstnik, U; VandeVondele, J; Weber, V; Hutter, J. 
 PARALLEL COMPUTING, 40 (5-6), 47-58 (2014). 
 Sparse matrix multiplication: The distributed block-compressed sparse
 row library.
 http://dx.doi.org/10.1016/j.parco.2014.03.012


 Hutter, J; Iannuzzi, M; Schiffmann, F; VandeVondele, J. 
 WILEY INTERDISCIPLINARY REVIEWS-COMPUTATIONAL MOLECULAR SCIENCE, 4 (1), 15-25 (2014). 
 CP2K: atomistic simulations of condensed matter systems.
 http://dx.doi.org/10.1002/wcms.1159


 Guidon, M; Hutter, J; VandeVondele, J. 
 JOURNAL OF CHEMICAL THEORY AND COMPUTATION, 5 (11), 3010-3021 (2009). 
 Robust Periodic Hartree-Fock Exchange for Large-Scale Simulations Using
 Gaussian Basis Sets.
 http://dx.doi.org/10.1021/ct900494g


 Guidon, M; Schiffmann, F; Hutter, J; VandeVondele, J. 
 JOURNAL OF CHEMICAL PHYSICS, 128 (21), 214104 (2008). 
 Ab initio molecular dynamics using hybrid density functionals.
 http://dx.doi.org/10.1063/1.2931945


 Krack, M. 
 THEORETICAL CHEMISTRY ACCOUNTS, 114 (1-3), 145-152 (2005). 
 Pseudopotentials for H to Kr optimized for gradient-corrected
 exchange-correlation functionals.
 http://dx.doi.org/10.1007/s00214-005-0655-y


 VandeVondele, J; Krack, M; Mohamed, F; Parrinello, M; Chassaing, T;
 Hutter, J. COMPUTER PHYSICS COMMUNICATIONS, 167 (2), 103-128 (2005). 
 QUICKSTEP: Fast and accurate density functional calculations using a
 mixed Gaussian and plane waves approach.
 http://dx.doi.org/10.1016/j.cpc.2004.12.014


 Frigo, M; Johnson, SG. 
 PROCEEDINGS OF THE IEEE, 93 (2), 216-231 (2005). 
 The design and implementation of FFTW3.
 http://dx.doi.org/10.1109/JPROC.2004.840301


 VandeVondele, J; Hutter, J. 
 JOURNAL OF CHEMICAL PHYSICS, 118 (10), 4365-4369 (2003). 
 An efficient orbital transformation method for electronic structure
 calculations.
 http://dx.doi.org/10.1063/1.1543154


 Hartwigsen, C; Goedecker, S; Hutter, J. 
 PHYSICAL REVIEW B, 58 (7), 3641-3662 (1998). 
 Relativistic separable dual-space Gaussian pseudopotentials from H to Rn.
 http://dx.doi.org/10.1103/PhysRevB.58.3641


 Lippert, G; Hutter, J; Parrinello, M. 
 MOLECULAR PHYSICS, 92 (3), 477-487 (1997). 
 A hybrid Gaussian and plane wave density functional scheme.
 http://dx.doi.org/10.1080/002689797170220


 Goedecker, S; Teter, M; Hutter, J. 
 PHYSICAL REVIEW B, 54 (3), 1703-1710 (1996). 
 Separable dual-space Gaussian pseudopotentials.
 http://dx.doi.org/10.1103/PhysRevB.54.1703


 -------------------------------------------------------------------------------
 -                                                                             -
 -                                T I M I N G                                  -
 -                                                                             -
 -------------------------------------------------------------------------------
 SUBROUTINE                       CALLS  ASD         SELF TIME        TOTAL TIME
                                MAXIMUM       AVERAGE  MAXIMUM  AVERAGE  MAXIMUM
 CP2K                                 1  1.0    0.012    0.015  140.231  140.232
 qs_energies                          1  2.0    0.000    0.000  139.931  139.931
 scf_env_do_scf                       1  3.0    0.000    0.000  138.885  138.885
 qs_ks_update_qs_env                 78  5.0    0.000    0.001   93.553   93.558
 rebuild_ks_matrix                   77  6.0    0.000    0.000   93.517   93.523
 qs_ks_build_kohn_sham_matrix        77  7.0    0.007    0.008   93.516   93.523
 scf_env_do_scf_inner_loop           77  4.0    0.003    0.006   89.699   89.733
 hfx_ks_matrix                       77  8.0    0.001    0.001   69.904   69.983
 integrate_four_center               77  9.0    0.077    0.383   69.898   69.977
 integrate_four_center_main          77 10.0    0.010    0.012   62.358   66.326
 integrate_four_center_bin         4928 11.0   62.349   66.317   62.349   66.317
 init_scf_loop                        1  4.0    0.000    0.000   49.149   49.150
 qs_rho_update_rho                   78  5.0    0.000    0.001   43.658   43.695
 calculate_rho_elec                 156  6.0    1.547    6.508   43.658   43.694
 density_rs2pw                      156  7.0    0.008    0.012   38.740   40.065
 pw_transfer                       1520  8.9    0.065    0.077   31.428   32.114
 fft_wrap_pw1pw2                   1366  9.9    0.009    0.012   30.930   31.623
 fft_wrap_pw1pw2_250                430 10.5    1.706    2.250   25.888   26.574
 rs_pw_transfer                    1174  9.0    0.013    0.020   24.615   25.545
 fft3d_ps                          1366 11.9   10.393   11.752   25.031   25.442
 sum_up_and_integrate                39  8.0    0.000    0.001   18.492   18.511
 integrate_v_rspace                  78  9.0    0.928    2.936   18.492   18.511
 potential_pw2rs                     78 10.0    0.015    0.020   15.334   15.366
 mp_alltoall_z22v                  1366 13.9   10.948   11.743   10.948   11.743
 mp_waitany                       19824 11.0    8.074   10.656    8.074   10.656
 mp_sync                            703 10.9    5.879   10.028    5.879   10.028
 rs_pw_transfer_RS2PW_250           158  9.0    3.544    5.548    7.960    9.402
 yz_to_x                            391 12.6    1.236    1.348    7.705    8.260
 mp_waitall_1                    363548 12.2    4.986    6.398    4.986    6.398
 x_to_yz                            273 12.9    1.430    1.524    5.842    6.093
 rs_pw_transfer_RS2PW_90            156  9.0    1.587    2.461    3.647    4.769
 rs_pw_transfer_PW2RS_250            80 11.9    2.052    3.211    3.431    4.680
 fft_wrap_pw1pw2_90                 234 11.0    0.150    0.220    3.748    4.140
 mp_alltoall_d11v                   895 11.2    2.621    3.334    2.621    3.334
 rs_distribute_matrix               234  8.0    0.014    0.043    2.607    3.308
 rs_pw_transfer_RS2PW_30            156  9.0    1.387    1.530    3.040    3.147
 rs_pw_transfer_PW2RS_90             78 12.0    0.812    1.115    2.558    3.024
 -------------------------------------------------------------------------------

 The number of warnings for this run is : 0
 
 -------------------------------------------------------------------------------
  **** **** ******  **  PROGRAM ENDED AT                 2019-07-13 09:03:24.944
 ***** ** ***  *** **   PROGRAM RAN ON            cpn-u27-15.cbls.ccr.buffalo.ed
 **    ****   ******    PROGRAM RAN BY                                  pavankum
 ***** **    ** ** **   PROGRAM PROCESS ID                                444311
  **** **  *******  **  PROGRAM STOPPED IN /projects/academic/mdupuis2/pavan/VAB
                                           _calculation/23.Fe_clust_paper/7units
                                           _dzv/GPW/largecell/point_0.4
