 DBCSR| Multiplication driver                                               BLAS
 DBCSR| Multrec recursion limit                                              512
 DBCSR| Multiplication stack size                                           1000
 DBCSR| Maximum elements for images                                    UNLIMITED
 DBCSR| Multiplicative factor virtual images                                   1
 DBCSR| Multiplication size stacks                                             3
 DBCSR| Number of 3D layers                                               SINGLE
 DBCSR| Use MPI memory allocation                                              T
 DBCSR| Use RMA algorithm                                                      F
 DBCSR| Use Communication thread                                               T
 DBCSR| Communication thread load                                             87


  **** **** ******  **  PROGRAM STARTED AT               2020-03-23 16:02:55.878
 ***** ** ***  *** **   PROGRAM STARTED ON        cpn-u25-04.cbls.ccr.buffalo.ed
 **    ****   ******    PROGRAM STARTED BY                              pavankum
 ***** **    ** ** **   PROGRAM PROCESS ID                                119990
  **** **  *******  **  PROGRAM STARTED IN /projects/academic/mdupuis2/pavan/MOA
                                           /Hematite/1d-chain/HF/state0

 CP2K| version string:                                          CP2K version 6.1
 CP2K| source code revision number:                                    svn:18464
 CP2K| cp2kflags: libint fftw3 libxc parallel mpi3 scalapack libderiv_max_am1=5 
 CP2K|            libint_max_am=6
 CP2K| is freely available from                            https://www.cp2k.org/
 CP2K| Program compiled at                          Fri Nov 30 14:17:09 EST 2018
 CP2K| Program compiled on                       srv-p22-12.cbls.ccr.buffalo.edu
 CP2K| Program compiled for                                                local
 CP2K| Data directory path    /projects/academic/mdupuis2/pavan/cp2k/cp2k-6.1/da
 CP2K| Input file name                                                 input.inp

 GLOBAL| Force Environment number                                              1
 GLOBAL| Basis set file name            /projects/academic/mdupuis2/pavan/BASIS_
 GLOBAL| Potential file name            /projects/academic/mdupuis2/pavan/POTENT
 GLOBAL| MM Potential file name                                     MM_POTENTIAL
 GLOBAL| Coordinate file name                                           opt0.xyz
 GLOBAL| Method name                                                        CP2K
 GLOBAL| Project name                                                      p_fe_
 GLOBAL| Preferred FFT library                                             FFTW3
 GLOBAL| Preferred diagonalization lib.                                       SL
 GLOBAL| Run type                                                         ENERGY
 GLOBAL| All-to-all communication in single precision                          F
 GLOBAL| FFTs using library dependent lengths                                  T
 GLOBAL| Global print level                                               MEDIUM
 GLOBAL| Total number of message passing processes                            64
 GLOBAL| Number of threads for this process                                    1
 GLOBAL| This output is from process                                           0
 GLOBAL| CPU model name :  Intel(R) Xeon(R) Gold 6130 CPU @ 2.10GHz

 MEMORY| system memory details [Kb]
 MEMORY|                        rank 0           min           max       average
 MEMORY| MemTotal            196463420     196463420     196463428     196463424
 MEMORY| MemFree             188170564     147422056     188170564     167796310
 MEMORY| Buffers                585488        584116        585488        584802
 MEMORY| Cached                1563204       1563204      42083200      21823202
 MEMORY| Slab                   509604        509604        772028        640816
 MEMORY| SReclaimable           246420        246420        497180        371800
 MEMORY| MemLikelyFree       190565676     190565676     190586552     190576114


 *** Fundamental physical constants (SI units) ***

 *** Literature: B. J. Mohr and B. N. Taylor,
 ***             CODATA recommended values of the fundamental physical
 ***             constants: 2006, Web Version 5.1
 ***             http://physics.nist.gov/constants

 Speed of light in vacuum [m/s]                             2.99792458000000E+08
 Magnetic constant or permeability of vacuum [N/A**2]       1.25663706143592E-06
 Electric constant or permittivity of vacuum [F/m]          8.85418781762039E-12
 Planck constant (h) [J*s]                                  6.62606896000000E-34
 Planck constant (h-bar) [J*s]                              1.05457162825177E-34
 Elementary charge [C]                                      1.60217648700000E-19
 Electron mass [kg]                                         9.10938215000000E-31
 Electron g factor [ ]                                     -2.00231930436220E+00
 Proton mass [kg]                                           1.67262163700000E-27
 Fine-structure constant                                    7.29735253760000E-03
 Rydberg constant [1/m]                                     1.09737315685270E+07
 Avogadro constant [1/mol]                                  6.02214179000000E+23
 Boltzmann constant [J/K]                                   1.38065040000000E-23
 Atomic mass unit [kg]                                      1.66053878200000E-27
 Bohr radius [m]                                            5.29177208590000E-11

 *** Conversion factors ***

 [u] -> [a.u.]                                              1.82288848426455E+03
 [Angstrom] -> [Bohr] = [a.u.]                              1.88972613288564E+00
 [a.u.] = [Bohr] -> [Angstrom]                              5.29177208590000E-01
 [a.u.] -> [s]                                              2.41888432650478E-17
 [a.u.] -> [fs]                                             2.41888432650478E-02
 [a.u.] -> [J]                                              4.35974393937059E-18
 [a.u.] -> [N]                                              8.23872205491840E-08
 [a.u.] -> [K]                                              3.15774647902944E+05
 [a.u.] -> [kJ/mol]                                         2.62549961709828E+03
 [a.u.] -> [kcal/mol]                                       6.27509468713739E+02
 [a.u.] -> [Pa]                                             2.94210107994716E+13
 [a.u.] -> [bar]                                            2.94210107994716E+08
 [a.u.] -> [atm]                                            2.90362800883016E+08
 [a.u.] -> [eV]                                             2.72113838565563E+01
 [a.u.] -> [Hz]                                             6.57968392072181E+15
 [a.u.] -> [1/cm] (wave numbers)                            2.19474631370540E+05
 [a.u./Bohr**2] -> [1/cm]                                   5.14048714338585E+03
 

 CELL_TOP| Volume [angstrom^3]:                                        26196.625
 CELL_TOP| Vector a [angstrom    21.385     0.000     0.000    |a| =      21.385
 CELL_TOP| Vector b [angstrom     0.000    35.000     0.000    |b| =      35.000
 CELL_TOP| Vector c [angstrom     0.000     0.000    35.000    |c| =      35.000
 CELL_TOP| Angle (b,c), alpha [degree]:                                   90.000
 CELL_TOP| Angle (a,c), beta  [degree]:                                   90.000
 CELL_TOP| Angle (a,b), gamma [degree]:                                   90.000
 CELL_TOP| Numerically orthorhombic:                                         YES

 CELL| Volume [angstrom^3]:                                            26196.625
 CELL| Vector a [angstrom]:      21.385     0.000     0.000    |a| =      21.385
 CELL| Vector b [angstrom]:       0.000    35.000     0.000    |b| =      35.000
 CELL| Vector c [angstrom]:       0.000     0.000    35.000    |c| =      35.000
 CELL| Angle (b,c), alpha [degree]:                                       90.000
 CELL| Angle (a,c), beta  [degree]:                                       90.000
 CELL| Angle (a,b), gamma [degree]:                                       90.000
 CELL| Numerically orthorhombic:                                             YES

 CELL_REF| Volume [angstrom^3]:                                        26196.625
 CELL_REF| Vector a [angstrom    21.385     0.000     0.000    |a| =      21.385
 CELL_REF| Vector b [angstrom     0.000    35.000     0.000    |b| =      35.000
 CELL_REF| Vector c [angstrom     0.000     0.000    35.000    |c| =      35.000
 CELL_REF| Angle (b,c), alpha [degree]:                                   90.000
 CELL_REF| Angle (a,c), beta  [degree]:                                   90.000
 CELL_REF| Angle (a,b), gamma [degree]:                                   90.000
 CELL_REF| Numerically orthorhombic:                                         YES

 *******************************************************************************
 *******************************************************************************
 **                                                                           **
 **     #####                         ##              ##                      **
 **    ##   ##            ##          ##              ##                      **
 **   ##     ##                       ##            ######                    **
 **   ##     ##  ##   ##  ##   #####  ##  ##   ####   ##    #####    #####    **
 **   ##     ##  ##   ##  ##  ##      ## ##   ##      ##   ##   ##  ##   ##   **
 **   ##  ## ##  ##   ##  ##  ##      ####     ###    ##   ######   ######    **
 **    ##  ###   ##   ##  ##  ##      ## ##      ##   ##   ##       ##        **
 **     #######   #####   ##   #####  ##  ##  ####    ##    #####   ##        **
 **           ##                                                    ##        **
 **                                                                           **
 **                                                ... make the atoms dance   **
 **                                                                           **
 **            Copyright (C) by CP2K developers group (2000 - 2018)           **
 **                                                                           **
 *******************************************************************************

 DFT| Spin unrestricted (spin-polarized) Kohn-Sham calculation               UKS
 DFT| Multiplicity                                                            35
 DFT| Number of spin states                                                    2
 DFT| Charge                                                                   6
 DFT| Self-interaction correction (SIC)                                       NO
 DFT| Cutoffs: density                                              1.000000E-10
 DFT|          gradient                                             1.000000E-10
 DFT|          tau                                                  1.000000E-10
 DFT|          cutoff_smoothing_range                               0.000000E+00
 DFT| XC density smoothing                                                  NONE
 DFT| XC derivatives                                                          PW
 FUNCTIONAL| NO EXCHANGE-CORRELATION FUNCTIONAL USED.

 QS| Method:                                                                 GPW
 QS| Density plane wave grid type                        NON-SPHERICAL FULLSPACE
 QS| Number of grid levels:                                                    5
 QS| Density cutoff [a.u.]:                                                250.0
 QS| Multi grid cutoff [a.u.]: 1) grid level                               250.0
 QS|                           2) grid level                                83.3
 QS|                           3) grid level                                27.8
 QS|                           4) grid level                                 9.3
 QS|                           5) grid level                                 3.1
 QS| Grid level progression factor:                                          3.0
 QS| Relative density cutoff [a.u.]:                                        30.0
 QS| Consistent realspace mapping and integration 
 QS| Interaction thresholds: eps_pgf_orb:                                1.0E-10
 QS|                         eps_filter_matrix:                          0.0E+00
 QS|                         eps_core_charge:                            1.0E-14
 QS|                         eps_rho_gspace:                             1.0E-12
 QS|                         eps_rho_rspace:                             1.0E-12
 QS|                         eps_gvg_rspace:                             1.0E-06
 QS|                         eps_ppl:                                    1.0E-02
 QS|                         eps_ppnl:                                   1.0E-08


 ATOMIC KIND INFORMATION

  1. Atomic kind: Fe                                    Number of atoms:       7

     Orbital Basis Set                                                   mod-DZV

       Number of orbital shell sets:                                           1
       Number of orbital shells:                                               7
       Number of primitive Cartesian functions:                                6
       Number of Cartesian basis functions:                                   21
       Number of spherical basis functions:                                   19
       Norm type:                                                              2

       Normalised Cartesian orbitals:

                        Set   Shell   Orbital            Exponent    Coefficient

                          1       1    2s                8.424366      -0.545589
                                                         4.825220      -0.832336
                                                         2.198939       0.958990
                                                         0.891661       0.416271
                                                         0.316231       0.012631
                                                         0.103474      -0.013505

                          1       2    3s                8.424366      -0.106056
                                                         4.825220      -0.104587
                                                         2.198939       0.052318
                                                         0.891661      -0.169042
                                                         0.316231       0.061854
                                                         0.103474       0.122891

                          1       3    4s                8.424366      -0.333477
                                                         4.825220      -0.289267
                                                         2.198939      -0.125861
                                                         0.891661      -1.004000
                                                         0.316231       0.780774
                                                         0.103474      -0.187846

                          1       4    3px               8.424366      -1.658234
                                                         4.825220       1.618912
                                                         2.198939       1.969078
                                                         0.891661       0.523780
                                                         0.316231       0.024574
                                                         0.103474      -0.000798
                          1       4    3py               8.424366      -1.658234
                                                         4.825220       1.618912
                                                         2.198939       1.969078
                                                         0.891661       0.523780
                                                         0.316231       0.024574
                                                         0.103474      -0.000798
                          1       4    3pz               8.424366      -1.658234
                                                         4.825220       1.618912
                                                         2.198939       1.969078
                                                         0.891661       0.523780
                                                         0.316231       0.024574
                                                         0.103474      -0.000798

                          1       5    4px               8.424366      -0.105249
                                                         4.825220      -0.126123
                                                         2.198939      -0.349657
                                                         0.891661      -0.133470
                                                         0.316231       0.170554
                                                         0.103474       0.054381
                          1       5    4py               8.424366      -0.105249
                                                         4.825220      -0.126123
                                                         2.198939      -0.349657
                                                         0.891661      -0.133470
                                                         0.316231       0.170554
                                                         0.103474       0.054381
                          1       5    4pz               8.424366      -0.105249
                                                         4.825220      -0.126123
                                                         2.198939      -0.349657
                                                         0.891661      -0.133470
                                                         0.316231       0.170554
                                                         0.103474       0.054381

                          1       6    4dx2              8.424366       7.918298
                                                         4.825220       5.112663
                                                         2.198939       2.118663
                                                         0.891661       0.465004
                                                         0.316231       0.065856
                                                         0.103474       0.002769
                          1       6    4dxy              8.424366      13.714895
                                                         4.825220       8.855393
                                                         2.198939       3.669632
                                                         0.891661       0.805411
                                                         0.316231       0.114066
                                                         0.103474       0.004796
                          1       6    4dxz              8.424366      13.714895
                                                         4.825220       8.855393
                                                         2.198939       3.669632
                                                         0.891661       0.805411
                                                         0.316231       0.114066
                                                         0.103474       0.004796
                          1       6    4dy2              8.424366       7.918298
                                                         4.825220       5.112663
                                                         2.198939       2.118663
                                                         0.891661       0.465004
                                                         0.316231       0.065856
                                                         0.103474       0.002769
                          1       6    4dyz              8.424366      13.714895
                                                         4.825220       8.855393
                                                         2.198939       3.669632
                                                         0.891661       0.805411
                                                         0.316231       0.114066
                                                         0.103474       0.004796
                          1       6    4dz2              8.424366       7.918298
                                                         4.825220       5.112663
                                                         2.198939       2.118663
                                                         0.891661       0.465004
                                                         0.316231       0.065856
                                                         0.103474       0.002769

                          1       7    5dx2              8.424366      -4.223614
                                                         4.825220      -1.970584
                                                         2.198939      -1.543490
                                                         0.891661      -0.041381
                                                         0.316231       0.082821
                                                         0.103474       0.021964
                          1       7    5dxy              8.424366      -7.315513
                                                         4.825220      -3.413151
                                                         2.198939      -2.673404
                                                         0.891661      -0.071673
                                                         0.316231       0.143450
                                                         0.103474       0.038042
                          1       7    5dxz              8.424366      -7.315513
                                                         4.825220      -3.413151
                                                         2.198939      -2.673404
                                                         0.891661      -0.071673
                                                         0.316231       0.143450
                                                         0.103474       0.038042
                          1       7    5dy2              8.424366      -4.223614
                                                         4.825220      -1.970584
                                                         2.198939      -1.543490
                                                         0.891661      -0.041381
                                                         0.316231       0.082821
                                                         0.103474       0.021964
                          1       7    5dyz              8.424366      -7.315513
                                                         4.825220      -3.413151
                                                         2.198939      -2.673404
                                                         0.891661      -0.071673
                                                         0.316231       0.143450
                                                         0.103474       0.038042
                          1       7    5dz2              8.424366      -4.223614
                                                         4.825220      -1.970584
                                                         2.198939      -1.543490
                                                         0.891661      -0.041381
                                                         0.316231       0.082821
                                                         0.103474       0.021964

     GTH Potential information for                                  GTH-BLYP-q16

       Description:                       Goedecker-Teter-Hutter pseudopotential
                                           Goedecker et al., PRB 54, 1703 (1996)
                                          Hartwigsen et al., PRB 58, 3641 (1998)
                                                      Krack, TCA 114, 145 (2005)

       Gaussian exponent of the core charge distribution:               3.858025
       Electronic configuration (s p d ...):                           4   6   6

       Parameters of the local part of the GTH pseudopotential:

                          rloc        C1          C2          C3          C4
                        0.360000    7.011025   -0.222747

       Parameters of the non-local part of the GTH pseudopotential:

                   l      r(l)      h(i,j,l)

                   0    0.276205    0.611496    7.992357
                                    7.992357  -10.318089
                   1    0.247130   -8.710556    8.684169
                                    8.684169  -10.275248
                   2    0.223534  -12.411504

  2. Atomic kind: O                                     Number of atoms:      28

     Orbital Basis Set                                                   mod-DZV

       Number of orbital shell sets:                                           1
       Number of orbital shells:                                               4
       Number of primitive Cartesian functions:                                5
       Number of Cartesian basis functions:                                    8
       Number of spherical basis functions:                                    8
       Norm type:                                                              2

       Normalised Cartesian orbitals:

                        Set   Shell   Orbital            Exponent    Coefficient

                          1       1    2s               10.389228       0.396646
                                                         3.849621       0.208811
                                                         1.388401      -0.301641
                                                         0.496955      -0.274061
                                                         0.162492      -0.033677

                          1       2    3s               10.389228       0.303673
                                                         3.849621       0.240943
                                                         1.388401      -0.313066
                                                         0.496955      -0.043055
                                                         0.162492       0.213991

                          1       3    3px              10.389228      -1.530415
                                                         3.849621      -1.371928
                                                         1.388401      -0.761951
                                                         0.496955      -0.253695
                                                         0.162492      -0.035541
                          1       3    3py              10.389228      -1.530415
                                                         3.849621      -1.371928
                                                         1.388401      -0.761951
                                                         0.496955      -0.253695
                                                         0.162492      -0.035541
                          1       3    3pz              10.389228      -1.530415
                                                         3.849621      -1.371928
                                                         1.388401      -0.761951
                                                         0.496955      -0.253695
                                                         0.162492      -0.035541

                          1       4    4px              10.389228      -0.565392
                                                         3.849621      -0.038231
                                                         1.388401      -0.382373
                                                         0.496955       0.179070
                                                         0.162492       0.122714
                          1       4    4py              10.389228      -0.565392
                                                         3.849621      -0.038231
                                                         1.388401      -0.382373
                                                         0.496955       0.179070
                                                         0.162492       0.122714
                          1       4    4pz              10.389228      -0.565392
                                                         3.849621      -0.038231
                                                         1.388401      -0.382373
                                                         0.496955       0.179070
                                                         0.162492       0.122714

     GTH Potential information for                                   GTH-BLYP-q6

       Description:                       Goedecker-Teter-Hutter pseudopotential
                                           Goedecker et al., PRB 54, 1703 (1996)
                                          Hartwigsen et al., PRB 58, 3641 (1998)
                                                      Krack, TCA 114, 145 (2005)

       Gaussian exponent of the core charge distribution:               8.438331
       Electronic configuration (s p d ...):                               2   4

       Parameters of the local part of the GTH pseudopotential:

                          rloc        C1          C2          C3          C4
                        0.243420  -16.991892    2.566142

       Parameters of the non-local part of the GTH pseudopotential:

                   l      r(l)      h(i,j,l)

                   0    0.220831   18.388851
                   1    0.217201

  3. Atomic kind: H                                     Number of atoms:      42

     Orbital Basis Set                                                   mod-DZV

       Number of orbital shell sets:                                           1
       Number of orbital shells:                                               2
       Number of primitive Cartesian functions:                                5
       Number of Cartesian basis functions:                                    2
       Number of spherical basis functions:                                    2
       Norm type:                                                              2

       Normalised Cartesian orbitals:

                        Set   Shell   Orbital            Exponent    Coefficient

                          1       1    2s               10.068468      -0.133023
                                                         2.680223      -0.177618
                                                         0.791502      -0.258419
                                                         0.239116      -0.107525
                                                         0.082193      -0.014019

                          1       2    3s               10.068468       0.344673
                                                         2.680223       1.819821
                                                         0.791502      -0.999069
                                                         0.239116       0.017430
                                                         0.082193       0.082660

     GTH Potential information for                                   GTH-BLYP-q1

       Description:                       Goedecker-Teter-Hutter pseudopotential
                                           Goedecker et al., PRB 54, 1703 (1996)
                                          Hartwigsen et al., PRB 58, 3641 (1998)
                                                      Krack, TCA 114, 145 (2005)

       Gaussian exponent of the core charge distribution:              12.500000
       Electronic configuration (s p d ...):                                   1

       Parameters of the local part of the GTH pseudopotential:

                          rloc        C1          C2          C3          C4
                        0.200000   -4.195961    0.730498


 MOLECULE KIND INFORMATION


 All atoms are their own molecule, skipping detailed information


 TOTAL NUMBERS AND MAXIMUM NUMBERS

  Total number of            - Atomic kinds:                                   3
                             - Atoms:                                         77
                             - Shell sets:                                    77
                             - Shells:                                       245
                             - Primitive Cartesian functions:                392
                             - Cartesian basis functions:                    455
                             - Spherical basis functions:                    441

  Maximum angular momentum of- Orbital basis functions:                        2
                             - Local part of the GTH pseudopotential:          2
                             - Non-local part of the GTH pseudopotential:      3


 MODULE QUICKSTEP:  ATOMIC COORDINATES IN angstrom

  Atom  Kind  Element       X           Y           Z          Z(eff)       Mass

       1     1 Fe  26   18.338105    0.000000    0.000051     16.00      55.8450
       2     1 Fe  26   15.278834    0.000003    0.000062     16.00      55.8450
       3     1 Fe  26   12.218703   -0.000004    0.000129     16.00      55.8450
       4     1 Fe  26    9.142570   -0.000004   -0.000079     16.00      55.8450
       5     1 Fe  26    6.116540    0.000004    0.000017     16.00      55.8450
       6     1 Fe  26    3.090133    0.000004    0.000159     16.00      55.8450
       7     1 Fe  26    0.013559   -0.000003   -0.000029     16.00      55.8450
       8     2 O    8   18.333744    0.000006    2.143018      6.00      15.9994
       9     2 O    8   18.333690   -0.000004   -2.142981      6.00      15.9994
      10     2 O    8   19.852774   -1.261120   -0.000056      6.00      15.9994
      11     2 O    8   19.852775    1.261118   -0.000088      6.00      15.9994
      12     2 O    8   15.278592    0.000015    2.143003      6.00      15.9994
      13     2 O    8   15.278535   -0.000011   -2.142939      6.00      15.9994
      14     2 O    8   16.808336   -1.260980   -0.000018      6.00      15.9994
      15     2 O    8   16.808337    1.260981   -0.000051      6.00      15.9994
      16     2 O    8   12.236569    0.000018    2.151091      6.00      15.9994
      17     2 O    8   12.236544   -0.000026   -2.150891      6.00      15.9994
      18     2 O    8   13.764103   -1.261187    0.000028      6.00      15.9994
      19     2 O    8   13.764099    1.261184   -0.000011      6.00      15.9994
      20     2 O    8    9.212005   -0.000163    2.172135      6.00      15.9994
      21     2 O    8    9.212206    0.000161   -2.172355      6.00      15.9994
      22     2 O    8   10.730347   -1.258059   -0.000002      6.00      15.9994
      23     2 O    8   10.730349    1.258057   -0.000039      6.00      15.9994
      24     2 O    8    6.117335    0.000334    2.293258      6.00      15.9994
      25     2 O    8    6.117150   -0.000319   -2.293221      6.00      15.9994
      26     2 O    8    7.767548   -1.325260   -0.000825      6.00      15.9994
      27     2 O    8    7.767563    1.325258    0.000367      6.00      15.9994
      28     2 O    8    3.018495   -0.000135    2.172438      6.00      15.9994
      29     2 O    8    3.018709    0.000134   -2.172126      6.00      15.9994
      30     2 O    8    4.465395   -1.325018   -0.000388      6.00      15.9994
      31     2 O    8    4.465402    1.325029    0.000797      6.00      15.9994
      32     2 O    8   -0.008133    0.000030    2.150879      6.00      15.9994
      33     2 O    8   -0.008153   -0.000032   -2.150992      6.00      15.9994
      34     2 O    8    1.502018   -1.257936   -0.000008      6.00      15.9994
      35     2 O    8    1.502013    1.257931   -0.000071      6.00      15.9994
      36     3 H    1   18.378143   -0.794387   -2.689204      1.00       1.0079
      37     3 H    1   18.378133    0.794378   -2.689205      1.00       1.0079
      38     3 H    1   18.378209   -0.794403    2.689195      1.00       1.0079
      39     3 H    1   18.378259    0.794418    2.689186      1.00       1.0079
      40     3 H    1   19.867972   -2.221065   -0.000019      1.00       1.0079
      41     3 H    1   19.867974    2.221063   -0.000028      1.00       1.0079
      42     3 H    1   15.227200   -0.794348   -2.688605      1.00       1.0079
      43     3 H    1   15.227326    0.794322   -2.688623      1.00       1.0079
      44     3 H    1   15.227425   -0.794357    2.688628      1.00       1.0079
      45     3 H    1   15.227281    0.794390    2.688610      1.00       1.0079
      46     3 H    1   16.808374   -2.221204    0.000000      1.00       1.0079
      47     3 H    1   16.808378    2.221206   -0.000013      1.00       1.0079
      48     3 H    1   12.098885   -0.793607   -2.682188      1.00       1.0079
      49     3 H    1   12.099240    0.793615   -2.682188      1.00       1.0079
      50     3 H    1   12.099356   -0.793670    2.682340      1.00       1.0079
      51     3 H    1   12.098973    0.793646    2.682333      1.00       1.0079
      52     3 H    1   13.748991   -2.221142    0.000011      1.00       1.0079
      53     3 H    1   13.748980    2.221138    0.000012      1.00       1.0079
      54     3 H    1    9.037586   -0.795091   -2.688472      1.00       1.0079
      55     3 H    1    9.038757    0.795435   -2.688833      1.00       1.0079
      56     3 H    1    9.038484   -0.795493    2.688492      1.00       1.0079
      57     3 H    1    9.037315    0.795130    2.688155      1.00       1.0079
      58     3 H    1   10.687502   -2.216270   -0.000029      1.00       1.0079
      59     3 H    1   10.687519    2.216269    0.000274      1.00       1.0079
      60     3 H    1    6.112974   -0.796002   -2.835901      1.00       1.0079
      61     3 H    1    6.113014    0.795609   -2.835546      1.00       1.0079
      62     3 H    1    6.112929   -0.795600    2.835572      1.00       1.0079
      63     3 H    1    6.112912    0.796030    2.835918      1.00       1.0079
      64     3 H    1    7.730952   -2.280823   -0.000102      1.00       1.0079
      65     3 H    1    7.730943    2.280821   -0.000639      1.00       1.0079
      66     3 H    1    3.186484   -0.795303   -2.690248      1.00       1.0079
      67     3 H    1    3.185494    0.795583   -2.690554      1.00       1.0079
      68     3 H    1    3.185180   -0.795604    2.690871      1.00       1.0079
      69     3 H    1    3.186254    0.795319    2.690543      1.00       1.0079
      70     3 H    1    4.502288   -2.280577    0.000679      1.00       1.0079
      71     3 H    1    4.502267    2.280587    0.000091      1.00       1.0079
      72     3 H    1    0.122829   -0.793759   -2.683766      1.00       1.0079
      73     3 H    1    0.122696    0.793717   -2.683761      1.00       1.0079
      74     3 H    1    0.122762   -0.793741    2.683595      1.00       1.0079
      75     3 H    1    0.122991    0.793767    2.683592      1.00       1.0079
      76     3 H    1    1.544980   -2.216139   -0.000257      1.00       1.0079
      77     3 H    1    1.544986    2.216132    0.000008      1.00       1.0079




 SCF PARAMETERS         Density guess:                                   RESTART
                        --------------------------------------------------------
                        max_scf:                                            1000
                        max_scf_history:                                       0
                        max_diis:                                              4
                        --------------------------------------------------------
                        eps_scf:                                        1.00E-06
                        eps_scf_history:                                0.00E+00
                        eps_diis:                                       1.00E-01
                        eps_eigval:                                     1.00E-05
                        --------------------------------------------------------
                        level_shift [a.u.]:                                 0.00
                        --------------------------------------------------------
                        Outer loop SCF in use 
                        No variables optimised in outer loop
                        eps_scf                                         1.00E-06
                        max_scf                                              500
                        No outer loop optimization
                        step_size                                       5.00E-01

 PW_GRID| Information for grid number                                          1
 PW_GRID| Grid distributed over                                    64 processors
 PW_GRID| Real space group dimensions                                    64    1
 PW_GRID| the grid is blocked:                                                NO
 PW_GRID| Cutoff [a.u.]                                                    250.0
 PW_GRID| spherical cutoff:                                                   NO
 PW_GRID|   Bounds   1           -144     143                Points:         288
 PW_GRID|   Bounds   2           -240     239                Points:         480
 PW_GRID|   Bounds   3           -240     239                Points:         480
 PW_GRID| Volume element (a.u.^3)  0.2664E-02     Volume (a.u.^3)    176783.5904
 PW_GRID| Grid span                                                    FULLSPACE
 PW_GRID|   Distribution                         Average         Max         Min
 PW_GRID|   G-Vectors                          1036800.0     1036800     1036800
 PW_GRID|   G-Rays                                3600.0        3600        3600
 PW_GRID|   Real Space Points                  1036800.0     1152000      921600

 PW_GRID| Information for grid number                                          2
 PW_GRID| Grid distributed over                                    64 processors
 PW_GRID| Real space group dimensions                                    64    1
 PW_GRID| the grid is blocked:                                                NO
 PW_GRID| Cutoff [a.u.]                                                     83.3
 PW_GRID| spherical cutoff:                                                   NO
 PW_GRID|   Bounds   1            -84      83                Points:         168
 PW_GRID|   Bounds   2           -137     137                Points:         275
 PW_GRID|   Bounds   3           -137     137                Points:         275
 PW_GRID| Volume element (a.u.^3)  0.1391E-01     Volume (a.u.^3)    176783.5904
 PW_GRID| Grid span                                                    FULLSPACE
 PW_GRID|   Distribution                         Average         Max         Min
 PW_GRID|   G-Vectors                           198515.6      198576      198408
 PW_GRID|   G-Rays                                1181.6        1182        1181
 PW_GRID|   Real Space Points                   198515.6      226875      151250

 PW_GRID| Information for grid number                                          3
 PW_GRID| Grid distributed over                                    64 processors
 PW_GRID| Real space group dimensions                                    64    1
 PW_GRID| the grid is blocked:                                                NO
 PW_GRID| Cutoff [a.u.]                                                     27.8
 PW_GRID| spherical cutoff:                                                   NO
 PW_GRID|   Bounds   1            -48      47                Points:          96
 PW_GRID|   Bounds   2            -80      79                Points:         160
 PW_GRID|   Bounds   3            -80      79                Points:         160
 PW_GRID| Volume element (a.u.^3)  0.7193E-01     Volume (a.u.^3)    176783.5904
 PW_GRID| Grid span                                                    FULLSPACE
 PW_GRID|   Distribution                         Average         Max         Min
 PW_GRID|   G-Vectors                            38400.0       38592       38304
 PW_GRID|   G-Rays                                 400.0         402         399
 PW_GRID|   Real Space Points                    38400.0       51200       25600

 PW_GRID| Information for grid number                                          4
 PW_GRID| Grid distributed over                                    64 processors
 PW_GRID| Real space group dimensions                                     8    8
 PW_GRID| the grid is blocked:                                                NO
 PW_GRID| Cutoff [a.u.]                                                      9.3
 PW_GRID| spherical cutoff:                                                   NO
 PW_GRID|   Bounds   1            -27      27                Points:          55
 PW_GRID|   Bounds   2            -48      47                Points:          96
 PW_GRID|   Bounds   3            -48      47                Points:          96
 PW_GRID| Volume element (a.u.^3)  0.3488         Volume (a.u.^3)    176783.5904
 PW_GRID| Grid span                                                    FULLSPACE
 PW_GRID|   Distribution                         Average         Max         Min
 PW_GRID|   G-Vectors                             7920.0        8030        7865
 PW_GRID|   G-Rays                                 144.0         146         143
 PW_GRID|   Real Space Points                     7920.0        8064        6912

 PW_GRID| Information for grid number                                          5
 PW_GRID| Grid distributed over                                    64 processors
 PW_GRID| Real space group dimensions                                     8    8
 PW_GRID| the grid is blocked:                                                NO
 PW_GRID| Cutoff [a.u.]                                                      3.1
 PW_GRID| spherical cutoff:                                                   NO
 PW_GRID|   Bounds   1            -16      15                Points:          32
 PW_GRID|   Bounds   2            -27      26                Points:          54
 PW_GRID|   Bounds   3            -27      26                Points:          54
 PW_GRID| Volume element (a.u.^3)   1.895         Volume (a.u.^3)    176783.5904
 PW_GRID| Grid span                                                    FULLSPACE
 PW_GRID|   Distribution                         Average         Max         Min
 PW_GRID|   G-Vectors                             1458.0        1536        1376
 PW_GRID|   G-Rays                                  45.6          48          43
 PW_GRID|   Real Space Points                     1458.0        1512        1296

 POISSON| Solver                                                        PERIODIC
 POISSON| Periodicity                                                        XYZ

 RS_GRID| Information for grid number                                          1
 RS_GRID|   Bounds   1           -144     143                Points:         288
 RS_GRID|   Bounds   2           -240     239                Points:         480
 RS_GRID|   Bounds   3           -240     239                Points:         480
 RS_GRID| Real space distribution over                                  8 groups
 RS_GRID| Real space distribution along direction                              2
 RS_GRID| Border size                                                         26
 RS_GRID| Real space distribution over                                  8 groups
 RS_GRID| Real space distribution along direction                              3
 RS_GRID| Border size                                                         26
 RS_GRID|   Distribution                         Average         Max         Min
 RS_GRID|   Planes                                 112.0         112         112
 RS_GRID|   Distribution                         Average         Max         Min
 RS_GRID|   Planes                                 112.0         112         112

 RS_GRID| Information for grid number                                          2
 RS_GRID|   Bounds   1            -84      83                Points:         168
 RS_GRID|   Bounds   2           -137     137                Points:         275
 RS_GRID|   Bounds   3           -137     137                Points:         275
 RS_GRID| Real space distribution over                                  8 groups
 RS_GRID| Real space distribution along direction                              2
 RS_GRID| Border size                                                         27
 RS_GRID| Real space distribution over                                  8 groups
 RS_GRID| Real space distribution along direction                              3
 RS_GRID| Border size                                                         27
 RS_GRID|   Distribution                         Average         Max         Min
 RS_GRID|   Planes                                  88.4          89          88
 RS_GRID|   Distribution                         Average         Max         Min
 RS_GRID|   Planes                                  88.4          89          88

 RS_GRID| Information for grid number                                          3
 RS_GRID|   Bounds   1            -48      47                Points:          96
 RS_GRID|   Bounds   2            -80      79                Points:         160
 RS_GRID|   Bounds   3            -80      79                Points:         160
 RS_GRID| Real space fully replicated
 RS_GRID| Group size                                                           1

 RS_GRID| Information for grid number                                          4
 RS_GRID|   Bounds   1            -27      27                Points:          55
 RS_GRID|   Bounds   2            -48      47                Points:          96
 RS_GRID|   Bounds   3            -48      47                Points:          96
 RS_GRID| Real space fully replicated
 RS_GRID| Group size                                                           1

 RS_GRID| Information for grid number                                          5
 RS_GRID|   Bounds   1            -16      15                Points:          32
 RS_GRID|   Bounds   2            -27      26                Points:          54
 RS_GRID|   Bounds   3            -27      26                Points:          54
 RS_GRID| Real space fully replicated
 RS_GRID| Group size                                                           1

  HFX_INFO| Replica ID:                                                        1
  HFX_INFO| EPS_SCHWARZ:                                                 1.0E-10
  HFX_INFO| EPS_SCHWARZ_FORCES                                           1.0E-06
  HFX_INFO| EPS_STORAGE_SCALING:                                         1.0E+00
  HFX_INFO| NBINS:                                                            64
  HFX_INFO| BLOCK_SIZE:                                                        1
  HFX_INFO| FRACTION:                                               1.0000000000
  HFX_INFO| Interaction Potential:                                     TRUNCATED
  HFX_INFO| Cutoff Radius [angstrom]:                              10.6711000000
  HFX_INFO| NUMBER_OF_SHELLS:                                               AUTO
  HFX_INFO| Number of periodic shells considered:                             -1
  HFX_INFO| Number of periodic cells considered:                              27


 Spin 1

 Number of electrons:                                                        175
 Number of occupied orbitals:                                                175
 Number of molecular orbitals:                                               175

 Spin 2

 Number of electrons:                                                        141
 Number of occupied orbitals:                                                141
 Number of molecular orbitals:                                               141

 Number of orbital functions:                                                441
 Number of independent orbital functions:                                    441

 Extrapolation method: initial_guess


 SCF WAVEFUNCTION OPTIMIZATION

  ----------------------------------- OT ---------------------------------------
  Minimizer      : CG                  : conjugate gradient
  Preconditioner : FULL_KINETIC        : inversion of T + eS
  Precond_solver : DEFAULT
  Line search    : 2PNT                : 2 energies, one gradient
  stepsize       :    0.15000000                  energy_gap     :    0.20000000
  eps_taylor     :   0.10000E-15                  max_taylor     :             4
  ----------------------------------- OT ---------------------------------------

  Step     Update method      Time    Convergence         Total energy    Change
  ------------------------------------------------------------------------------

  HFX_MEM_INFO| Est. max. program size before HFX [MiB]:                     489
  HFX_MEM_INFO| Number of cart. primitive ERI's calculated:          75212285029
  HFX_MEM_INFO| Number of sph. ERI's calculated:                      4832548090
  HFX_MEM_INFO| Number of sph. ERI's stored in-core:                  4832548090
  HFX_MEM_INFO| Number of sph. ERI's stored on disk:                           0
  HFX_MEM_INFO| Number of sph. ERI's calculated on the fly:                    0
  HFX_MEM_INFO| Total memory consumption ERI's RAM [MiB]:                  12381
  HFX_MEM_INFO| Whereof max-vals [MiB]:                                        4
  HFX_MEM_INFO| Total compression factor ERI's RAM:                         2.98
  HFX_MEM_INFO| Total memory consumption ERI's disk [MiB]:                     0
  HFX_MEM_INFO| Total compression factor ERI's disk:                        0.00
  HFX_MEM_INFO| Size of density/Fock matrix [MiB]:                             0
  HFX_MEM_INFO| Size of buffers [MiB]:                                         1
  HFX_MEM_INFO| Number of periodic image cells considered:                    27
  HFX_MEM_INFO| Est. max. program size after HFX  [MiB]:                     686

     1 OT CG       0.15E+00  119.5     0.00000032     -1322.6565717765 -1.32E+03

  *** SCF run converged in     1 steps ***


  Electronic density on regular grids:       -315.9999999998        0.0000000002
  Core density on regular grids:              321.9999999999       -0.0000000001
  Total charge density on r-space grids:        6.0000000001
  Total charge density g-space grids:           6.0000000001

  Overlap energy of the core charge distribution:               0.00000108126898
  Self energy of the core charge distribution:              -2631.59580429473499
  Core Hamiltonian energy:                                    746.79587908356018
  Hartree energy:                                             754.57527763654389
  Exchange-correlation energy:                                  0.00000000000000
  Hartree-Fock Exchange energy:                              -192.43192528310516

  Total energy:                                             -1322.65657177646699

  outer SCF iter =    1 RMS gradient =   0.32E-06 energy =      -1322.6565717765
  outer SCF loop converged in   1 iterations or    1 steps


  Integrated absolute spin density  :                              34.3026460819
  Ideal and single determinant S**2 :                  306.000000     306.047660

 !-----------------------------------------------------------------------------!
                     Mulliken Population Analysis

 #  Atom  Element  Kind  Atomic population (alpha,beta) Net charge  Spin moment
       1     Fe       1         9.416312     4.676789     1.906899     4.739523
       2     Fe       1         9.416388     4.676924     1.906688     4.739464
       3     Fe       1         9.418874     4.683093     1.898034     4.735781
       4     Fe       1         9.427561     4.706643     1.865796     4.720918
       5     Fe       1         9.163635     5.226340     1.610025     3.937294
       6     Fe       1         9.427309     4.706229     1.866462     4.721080
       7     Fe       1         9.418675     4.682762     1.898563     4.735913
       8     O        2         3.310714     3.288593    -0.599307     0.022121
       9     O        2         3.310699     3.288583    -0.599282     0.022116
      10     O        2         3.509083     3.408385    -0.917468     0.100697
      11     O        2         3.509082     3.408385    -0.917467     0.100698
      12     O        2         3.310702     3.288559    -0.599261     0.022143
      13     O        2         3.310687     3.288550    -0.599237     0.022137
      14     O        2         3.509080     3.407805    -0.916885     0.101275
      15     O        2         3.509080     3.407805    -0.916885     0.101275
      16     O        2         3.310479     3.288629    -0.599108     0.021851
      17     O        2         3.310457     3.288611    -0.599069     0.021846
      18     O        2         3.509088     3.408384    -0.917472     0.100704
      19     O        2         3.509088     3.408383    -0.917472     0.100705
      20     O        2         3.310659     3.290954    -0.601613     0.019706
      21     O        2         3.310649     3.290954    -0.601603     0.019696
      22     O        2         3.508905     3.408956    -0.917861     0.099950
      23     O        2         3.508906     3.408956    -0.917861     0.099950
      24     O        2         3.315309     3.312831    -0.628140     0.002478
      25     O        2         3.315304     3.312826    -0.628130     0.002478
      26     O        2         3.516858     3.426911    -0.943769     0.089947
      27     O        2         3.516860     3.426913    -0.943773     0.089947
      28     O        2         3.310706     3.291087    -0.601793     0.019618
      29     O        2         3.310689     3.291068    -0.601757     0.019621
      30     O        2         3.516873     3.426930    -0.943803     0.089943
      31     O        2         3.516871     3.426929    -0.943800     0.089942
      32     O        2         3.310482     3.288684    -0.599166     0.021798
      33     O        2         3.310476     3.288684    -0.599160     0.021793
      34     O        2         3.508909     3.408971    -0.917880     0.099938
      35     O        2         3.508909     3.408971    -0.917880     0.099939
      36     H        3         0.323254     0.322688     0.354058     0.000566
      37     H        3         0.323255     0.322689     0.354056     0.000566
      38     H        3         0.323247     0.322683     0.354070     0.000565
      39     H        3         0.323246     0.322681     0.354073     0.000565
      40     H        3         0.329542     0.326934     0.343524     0.002607
      41     H        3         0.329541     0.326934     0.343524     0.002607
      42     H        3         0.323249     0.322687     0.354064     0.000562
      43     H        3         0.323251     0.322689     0.354061     0.000562
      44     H        3         0.323243     0.322682     0.354075     0.000560
      45     H        3         0.323241     0.322680     0.354079     0.000560
      46     H        3         0.329183     0.326598     0.344218     0.002585
      47     H        3         0.329183     0.326598     0.344219     0.002585
      48     H        3         0.324097     0.323702     0.352201     0.000395
      49     H        3         0.324104     0.323709     0.352187     0.000394
      50     H        3         0.324092     0.323699     0.352209     0.000393
      51     H        3         0.324085     0.323692     0.352223     0.000393
      52     H        3         0.329524     0.326912     0.343564     0.002613
      53     H        3         0.329524     0.326912     0.343564     0.002612
      54     H        3         0.326762     0.326553     0.346685     0.000209
      55     H        3         0.326776     0.326565     0.346659     0.000211
      56     H        3         0.326768     0.326558     0.346673     0.000210
      57     H        3         0.326754     0.326546     0.346700     0.000207
      58     H        3         0.331558     0.328917     0.339525     0.002641
      59     H        3         0.331558     0.328917     0.339525     0.002641
      60     H        3         0.334706     0.334143     0.331151     0.000563
      61     H        3         0.334699     0.334136     0.331165     0.000563
      62     H        3         0.334697     0.334134     0.331169     0.000563
      63     H        3         0.334705     0.334141     0.331155     0.000564
      64     H        3         0.340262     0.338295     0.321443     0.001967
      65     H        3         0.340259     0.338298     0.321442     0.001961
      66     H        3         0.326781     0.326554     0.346666     0.000227
      67     H        3         0.326795     0.326566     0.346640     0.000229
      68     H        3         0.326789     0.326560     0.346651     0.000229
      69     H        3         0.326775     0.326549     0.346676     0.000226
      70     H        3         0.340261     0.338305     0.321434     0.001956
      71     H        3         0.340264     0.338301     0.321436     0.001963
      72     H        3         0.324114     0.323707     0.352179     0.000407
      73     H        3         0.324120     0.323712     0.352168     0.000407
      74     H        3         0.324117     0.323711     0.352172     0.000405
      75     H        3         0.324110     0.323705     0.352185     0.000406
      76     H        3         0.331575     0.328941     0.339484     0.002634
      77     H        3         0.331575     0.328941     0.339483     0.002634
 # Total charge and spin      175.000000   141.000000     6.000000    34.000000

 !-----------------------------------------------------------------------------!

 !-----------------------------------------------------------------------------!
                           Hirshfeld Charges

  #Atom  Element  Kind  Ref Charge     Population       Spin moment  Net charge
      1       Fe     1      16.000   10.755   6.028            4.727     -0.783
      2       Fe     1      16.000   10.755   6.028            4.727     -0.784
      3       Fe     1      16.000   10.763   6.039            4.724     -0.802
      4       Fe     1      16.000   10.765   6.056            4.709     -0.820
      5       Fe     1      16.000   10.335   6.433            3.902     -0.769
      6       Fe     1      16.000   10.764   6.055            4.709     -0.819
      7       Fe     1      16.000   10.763   6.039            4.724     -0.801
      8       O      2       6.000    3.366   3.339            0.027     -0.705
      9       O      2       6.000    3.366   3.339            0.027     -0.705
     10       O      2       6.000    3.158   3.055            0.103     -0.213
     11       O      2       6.000    3.158   3.055            0.103     -0.213
     12       O      2       6.000    3.366   3.339            0.027     -0.705
     13       O      2       6.000    3.366   3.339            0.027     -0.705
     14       O      2       6.000    3.157   3.054            0.103     -0.212
     15       O      2       6.000    3.157   3.054            0.103     -0.212
     16       O      2       6.000    3.368   3.342            0.026     -0.710
     17       O      2       6.000    3.368   3.342            0.026     -0.710
     18       O      2       6.000    3.158   3.055            0.103     -0.213
     19       O      2       6.000    3.158   3.055            0.103     -0.213
     20       O      2       6.000    3.375   3.351            0.024     -0.727
     21       O      2       6.000    3.375   3.351            0.024     -0.727
     22       O      2       6.000    3.161   3.059            0.102     -0.221
     23       O      2       6.000    3.161   3.059            0.102     -0.221
     24       O      2       6.000    3.411   3.399            0.012     -0.810
     25       O      2       6.000    3.411   3.399            0.012     -0.810
     26       O      2       6.000    3.176   3.083            0.093     -0.259
     27       O      2       6.000    3.176   3.083            0.093     -0.259
     28       O      2       6.000    3.376   3.351            0.024     -0.727
     29       O      2       6.000    3.376   3.351            0.024     -0.727
     30       O      2       6.000    3.176   3.083            0.093     -0.258
     31       O      2       6.000    3.176   3.083            0.093     -0.258
     32       O      2       6.000    3.368   3.342            0.026     -0.710
     33       O      2       6.000    3.368   3.342            0.026     -0.710
     34       O      2       6.000    3.161   3.059            0.102     -0.221
     35       O      2       6.000    3.161   3.059            0.102     -0.221
     36       H      3       1.000    0.201   0.200            0.000      0.599
     37       H      3       1.000    0.201   0.200            0.000      0.599
     38       H      3       1.000    0.201   0.200            0.000      0.599
     39       H      3       1.000    0.201   0.200            0.000      0.599
     40       H      3       1.000    0.204   0.201            0.003      0.594
     41       H      3       1.000    0.204   0.201            0.003      0.594
     42       H      3       1.000    0.201   0.200            0.000      0.599
     43       H      3       1.000    0.201   0.200            0.000      0.599
     44       H      3       1.000    0.201   0.200            0.000      0.599
     45       H      3       1.000    0.201   0.200            0.000      0.599
     46       H      3       1.000    0.204   0.201            0.003      0.595
     47       H      3       1.000    0.204   0.201            0.003      0.595
     48       H      3       1.000    0.201   0.201            0.000      0.598
     49       H      3       1.000    0.201   0.201            0.000      0.598
     50       H      3       1.000    0.201   0.201            0.000      0.598
     51       H      3       1.000    0.201   0.201            0.000      0.598
     52       H      3       1.000    0.204   0.201            0.003      0.594
     53       H      3       1.000    0.204   0.201            0.003      0.594
     54       H      3       1.000    0.202   0.202            0.000      0.596
     55       H      3       1.000    0.202   0.202            0.000      0.596
     56       H      3       1.000    0.202   0.202            0.000      0.596
     57       H      3       1.000    0.202   0.202            0.000      0.596
     58       H      3       1.000    0.205   0.202            0.003      0.592
     59       H      3       1.000    0.205   0.202            0.003      0.592
     60       H      3       1.000    0.206   0.205            0.000      0.589
     61       H      3       1.000    0.206   0.205            0.000      0.589
     62       H      3       1.000    0.206   0.205            0.000      0.589
     63       H      3       1.000    0.206   0.205            0.000      0.589
     64       H      3       1.000    0.209   0.207            0.002      0.585
     65       H      3       1.000    0.209   0.207            0.002      0.585
     66       H      3       1.000    0.202   0.202            0.000      0.596
     67       H      3       1.000    0.202   0.202            0.000      0.596
     68       H      3       1.000    0.202   0.202            0.000      0.596
     69       H      3       1.000    0.202   0.202            0.000      0.596
     70       H      3       1.000    0.209   0.207            0.002      0.585
     71       H      3       1.000    0.209   0.207            0.002      0.585
     72       H      3       1.000    0.201   0.201            0.000      0.598
     73       H      3       1.000    0.201   0.201            0.000      0.598
     74       H      3       1.000    0.201   0.201            0.000      0.598
     75       H      3       1.000    0.201   0.201            0.000      0.598
     76       H      3       1.000    0.205   0.202            0.003      0.592
     77       H      3       1.000    0.205   0.202            0.003      0.592

  Total Charge                                                            6.013
 !-----------------------------------------------------------------------------!
  
  Eigenvalues of the occupied subspace spin            1
 ---------------------------------------------
      -5.10620677     -5.10617612     -5.09388846     -5.09386885
      -5.06037188     -5.06035620     -4.72781103     -3.60246999
      -3.60219674     -3.60048873     -3.60042826     -3.59959228
      -3.59956878     -3.59006474     -3.59003913     -3.58820846
      -3.58818948     -3.58723203     -3.58721413     -3.55658922
      -3.55656910     -3.55506533     -3.55504913     -3.55342731
      -3.55340833     -3.27608492     -3.20894375     -3.19548009
      -1.74443451     -1.74158028     -1.74119572     -1.73884023
      -1.73496249     -1.73477833     -1.73264451     -1.73251521
      -1.71925065     -1.71910870     -1.71734184     -1.71721174
      -1.68777318     -1.68708568     -1.68501691     -1.67654059
      -1.67137813     -1.66581834     -1.66051681     -1.65988049
      -1.65628080     -1.65611471     -1.64207038     -1.64198824
      -1.60412507     -1.60014788     -1.59331505     -1.59327792
      -1.26642091     -1.26304048     -1.25883394     -1.25686981
      -1.24903928     -1.24873085     -1.24621978     -1.24355197
      -1.24020793     -1.23778979     -1.23441473     -1.23440340
      -1.23257100     -1.23197844     -1.22597132     -1.22417502
      -1.22379849     -1.22341239     -1.22095250     -1.22091682
      -1.21243555     -1.21210226     -1.21092797     -1.21056247
      -1.19175208     -1.19162617     -1.19043017     -1.18989407
      -1.18834583     -1.18832831     -1.09722784     -1.09473500
      -1.09453119     -1.09141366     -1.08806804     -1.08799856
      -1.08492203     -1.08474266     -1.07384786     -1.07359300
      -1.07080086     -1.07043137     -1.06505541     -1.06078039
      -1.05762115     -1.04731829     -1.04615123     -1.04246241
      -1.04127592     -1.01222444     -1.01181569     -1.00549471
      -0.99659290     -0.99647515     -0.98776770     -0.98606612
      -0.98496481     -0.97707928     -0.97397215     -0.96648013
      -0.96638812     -0.96504709     -0.95965592     -0.95655652
      -0.95210034     -0.94803451     -0.93715069     -0.92957029
      -0.92885914     -0.92516099     -0.92386558     -0.92089318
      -0.91777279     -0.91449516     -0.91117148     -0.90614616
      -0.90327056     -0.90293274     -0.90111316     -0.89275459
      -0.89147874     -0.88372798     -0.88147787     -0.88060830
      -0.88023977     -0.87385787     -0.87230708     -0.87142808
      -0.86764973     -0.86425809     -0.86175548     -0.86173148
      -0.85978253     -0.85119894     -0.84875848     -0.84759544
      -0.84153104     -0.84148670     -0.83687631     -0.83679737
      -0.83650527     -0.83327282     -0.82896540     -0.82683048
      -0.82620344     -0.82289035     -0.82070290     -0.81868922
      -0.81860740     -0.81255657     -0.79062845     -0.79016904
      -0.78233375     -0.78075552     -0.77567656     -0.77158901
      -0.76855970     -0.76703452     -0.71596718
 Fermi Energy [eV] :  -19.482458
  
  Eigenvalues of the occupied subspace spin            2
 ---------------------------------------------
      -4.60135341     -4.60130026     -4.58927552     -4.58924941
      -4.55661064     -4.55660245     -4.32884895     -3.00061837
      -3.00049907     -2.99997285     -2.99884815     -2.99863792
      -2.99855286     -2.98880246     -2.98877285     -2.98737260
      -2.98733653     -2.98648169     -2.98645820     -2.95707758
      -2.95707317     -2.95518527     -2.95517948     -2.95330427
      -2.95329358     -2.77061951     -2.76518805     -2.71692508
      -1.73907424     -1.73679197     -1.73585220     -1.73403011
      -1.72969509     -1.72950548     -1.72788704     -1.72775491
      -1.71445349     -1.71429680     -1.71296581     -1.71282155
      -1.68576832     -1.68518492     -1.66240591     -1.65415073
      -1.64923149     -1.64089687     -1.63625317     -1.63617324
      -1.63422414     -1.63408446     -1.61811680     -1.61803895
      -1.58439169     -1.58030553     -1.57191867     -1.57117877
      -1.09672879     -1.09512957     -1.09306575     -1.09254417
      -1.08669464     -1.08641413     -1.08597501     -1.08587624
      -1.07288071     -1.07266382     -1.07230873     -1.07198870
      -1.07171443     -1.06153271     -1.05099898     -1.04530062
      -1.04517695     -1.03715949     -1.03429351     -1.00088484
      -0.99430931     -0.99230292     -0.98863743     -0.98632111
      -0.98404617     -0.98170893     -0.98065951     -0.97760504
      -0.97574867     -0.97364606     -0.97137862     -0.96639719
      -0.95777511     -0.95624624     -0.95536701     -0.95433139
      -0.95238516     -0.95147349     -0.92770444     -0.91935681
      -0.91931367     -0.91924862     -0.91813899     -0.91328199
      -0.91285379     -0.91119577     -0.89857649     -0.89657344
      -0.89547623     -0.88868249     -0.88695999     -0.88435240
      -0.88157633     -0.87893492     -0.87563444     -0.86850948
      -0.86489111     -0.86369739     -0.86251215     -0.86224465
      -0.85802366     -0.85770641     -0.84901921     -0.83393438
      -0.83137244     -0.82997012     -0.82983642     -0.82807370
      -0.82780062     -0.82497256     -0.82447439     -0.81758650
      -0.81018877     -0.80938002     -0.80333411     -0.80298969
      -0.80269622     -0.79921364     -0.79037723     -0.77562068
      -0.76598550     -0.76431136     -0.75997088     -0.75504856
      -0.64849665
 Fermi Energy [eV] :  -17.646491
  
  Lowest eigenvalues of the unoccupied subspace spin            1
 ---------------------------------------------

  
  Lowest eigenvalues of the unoccupied subspace spin            2
 ---------------------------------------------

 -----------------------------------------------
             MAXIMAL ORBITAL ANALYSIS           
 -----------------------------------------------
 SIZE OF ALPHA ORBS IS          175
 SIZE OF BETA ORBS IS          141
 INPUT TAGS:
 NFRG =            3
 LFRG =            1           1           2
 IFRG =            5           4          26          27
 NOMOA =            0           0           0           0           0           0           0           0           0           0           0           0           0           0           0           0           0           0           0           0           0           0           0           0           0           0           0           0           0           0           0           0           0           0           0           0           0           0           0           0           0           0           0           0           0           0           0           0           0           0           0           0           0           0           0           0           0           0           0           0           0           0           0           0           0           0           0           0           0           0           0           0           0           0           0           0           0           0           0           0           0           0           0           0           0           0           0           0           0           0           0           0           0           0           0           0           0           0           0           0           0           0           0           0           0           0           0           0           0           0           0           0           0           0           0           0           0           0           0           0           0           0           0           0           0           0           0           0           0           0           0           0           0           0           0           0           0           0           0           0           0           0           0           0           0           0           0           0           0           0           0           0           0           0           0           0           0           0           0           0           0           0           0           0           0           0           0           0           0           0           0           0           0           0           0
 NOMOAA =            0           0           0           0           0           0           0           0           0           0           0           0           0           0           0           0           0           0           0           0           0           0           0           0           0           0           0           0           0           0           0           0           0           0           0           0           0           0           0           0           0           0           0           0           0           0           0           0           0           0           0           0           0           0           0           0           0           0           0           0           0           0           0           0           0           0           0           0           0           0           0           0           0           0           0           0           0           0           0           0           0           0           0           0           0           0           0           0           0           0           0           0           0           0           0           0           0           0           0           0           0           0           0           0           0           0           0           0           0           0           0           0           0           0           0           0           0           0           0           0           0           0           0           0           0           0           0           0           0           0           0           0           0           0           0           0           0           0           0           0           0           0           0           0           0           0           0           0           0           0           0           0           0           0           0           0           0           0           0           0           0           0           0           0           0           0           0           0           0           0           0           0           0           0           0
[...]
 -                                                                             -
 -                                DBCSR STATISTICS                             -
 -                                                                             -
 -------------------------------------------------------------------------------
 COUNTER                                    TOTAL       BLAS       SMM       ACC
 flops    13 x    13 x    13                 4394     100.0%      0.0%      0.0%
 flops    15 x    15 x    15                 6750     100.0%      0.0%      0.0%
 flops     2 x    13 x    13                28392     100.0%      0.0%      0.0%
 flops     2 x    15 x    15                37800     100.0%      0.0%      0.0%
 flops    13 x    13 x    32                43264     100.0%      0.0%      0.0%
 flops    13 x    32 x    13                43264     100.0%      0.0%      0.0%
 flops    32 x    13 x    13                43264     100.0%      0.0%      0.0%
 flops    19 x    13 x    13                44954     100.0%      0.0%      0.0%
 flops    56 x    13 x    13                56784     100.0%      0.0%      0.0%
 flops    13 x    13 x    56                56784     100.0%      0.0%      0.0%
 flops    19 x    15 x    15                59850     100.0%      0.0%      0.0%
 flops    15 x    15 x    32                72000     100.0%      0.0%      0.0%
 flops    15 x    32 x    15                72000     100.0%      0.0%      0.0%
 flops    32 x    15 x    15                72000     100.0%      0.0%      0.0%
 flops    56 x    15 x    15                75600     100.0%      0.0%      0.0%
 flops    15 x    15 x    56                75600     100.0%      0.0%      0.0%
 flops     8 x    13 x    13                75712     100.0%      0.0%      0.0%
 flops     8 x    15 x    15               100800     100.0%      0.0%      0.0%
 flops    56 x    13 x    56               163072     100.0%      0.0%      0.0%
 flops     2 x     2 x    13               187824     100.0%      0.0%      0.0%
 flops    56 x    15 x    56               188160     100.0%      0.0%      0.0%
 flops     2 x     2 x    15               216720     100.0%      0.0%      0.0%
 flops    19 x     2 x    13               290472     100.0%      0.0%      0.0%
 flops     2 x    19 x    13               290472     100.0%      0.0%      0.0%
 flops    19 x     2 x    15               335160     100.0%      0.0%      0.0%
 flops     2 x    19 x    15               335160     100.0%      0.0%      0.0%
 flops    55 x    13 x    13               390390     100.0%      0.0%      0.0%
 flops    13 x    13 x    55               390390     100.0%      0.0%      0.0%
 flops    32 x    32 x    13               425984     100.0%      0.0%      0.0%
 flops    13 x    32 x    32               425984     100.0%      0.0%      0.0%
 flops    32 x    13 x    32               425984     100.0%      0.0%      0.0%
 flops     8 x     2 x    13               489216     100.0%      0.0%      0.0%
 flops     2 x     8 x    13               489216     100.0%      0.0%      0.0%
 flops    55 x    15 x    15               519750     100.0%      0.0%      0.0%
 flops    15 x    15 x    55               519750     100.0%      0.0%      0.0%
 flops    19 x    19 x    13               525616     100.0%      0.0%      0.0%
 flops    56 x    13 x    32               559104     100.0%      0.0%      0.0%
 flops    56 x    32 x    13               559104     100.0%      0.0%      0.0%
 flops    13 x    32 x    56               559104     100.0%      0.0%      0.0%
 flops    32 x    13 x    56               559104     100.0%      0.0%      0.0%
 flops     8 x     2 x    15               564480     100.0%      0.0%      0.0%
 flops     2 x     8 x    15               564480     100.0%      0.0%      0.0%
 flops    19 x    19 x    15               606480     100.0%      0.0%      0.0%
 flops    32 x    32 x    15               768000     100.0%      0.0%      0.0%
 flops    15 x    32 x    32               768000     100.0%      0.0%      0.0%
 flops    32 x    15 x    32               768000     100.0%      0.0%      0.0%
 flops    19 x     8 x    13               774592     100.0%      0.0%      0.0%
 flops     8 x    19 x    13               774592     100.0%      0.0%      0.0%
 flops    56 x    15 x    32               806400     100.0%      0.0%      0.0%
 flops    56 x    32 x    15               806400     100.0%      0.0%      0.0%
 flops    15 x    32 x    56               806400     100.0%      0.0%      0.0%
 flops    32 x    15 x    56               806400     100.0%      0.0%      0.0%
 flops    19 x     8 x    15               893760     100.0%      0.0%      0.0%
 flops     8 x    19 x    15               893760     100.0%      0.0%      0.0%
 flops     2 x    15 x     2              1058400     100.0%      0.0%      0.0%
 flops     2 x    13 x     2              1100736     100.0%      0.0%      0.0%
 flops    55 x    13 x    56              1121120     100.0%      0.0%      0.0%
 flops    56 x    13 x    55              1121120     100.0%      0.0%      0.0%
 flops    55 x    15 x    56              1293600     100.0%      0.0%      0.0%
 flops    56 x    15 x    55              1293600     100.0%      0.0%      0.0%
 flops     8 x     8 x    13              1351168     100.0%      0.0%      0.0%
 flops     2 x    32 x    32              1548288     100.0%      0.0%      0.0%
 flops     8 x     8 x    15              1559040     100.0%      0.0%      0.0%
 flops    19 x    15 x     2              1675800     100.0%      0.0%      0.0%
 flops     2 x    15 x    19              1675800     100.0%      0.0%      0.0%
 flops    19 x    13 x     2              1742832     100.0%      0.0%      0.0%
 flops     2 x    13 x    19              1742832     100.0%      0.0%      0.0%
 flops    19 x    32 x    32              2451456     100.0%      0.0%      0.0%
 flops    19 x    15 x    19              2653350     100.0%      0.0%      0.0%
 flops    19 x    13 x    19              2759484     100.0%      0.0%      0.0%
 flops     8 x    15 x     2              2822400     100.0%      0.0%      0.0%
 flops     2 x    15 x     8              2822400     100.0%      0.0%      0.0%
 flops     8 x    13 x     2              2935296     100.0%      0.0%      0.0%
 flops     2 x    13 x     8              2935296     100.0%      0.0%      0.0%
 flops    56 x    32 x    56              3612672     100.0%      0.0%      0.0%
 flops    55 x    32 x    13              3843840     100.0%      0.0%      0.0%
 flops    55 x    13 x    32              3843840     100.0%      0.0%      0.0%
 flops    13 x    32 x    55              3843840     100.0%      0.0%      0.0%
 flops    32 x    13 x    55              3843840     100.0%      0.0%      0.0%
 flops     8 x    32 x    32              4128768     100.0%      0.0%      0.0%
 flops     2 x     2 x    32              4161024     100.0%      0.0%      0.0%
 flops    19 x    15 x     8              4468800     100.0%      0.0%      0.0%
 flops     8 x    15 x    19              4468800     100.0%      0.0%      0.0%
 flops    19 x    13 x     8              4647552     100.0%      0.0%      0.0%
 flops     8 x    13 x    19              4647552     100.0%      0.0%      0.0%
 flops    55 x    32 x    15              5544000     100.0%      0.0%      0.0%
 flops    55 x    15 x    32              5544000     100.0%      0.0%      0.0%
 flops    15 x    32 x    55              5544000     100.0%      0.0%      0.0%
 flops    32 x    15 x    55              5544000     100.0%      0.0%      0.0%
 flops    19 x     2 x    32              6435072     100.0%      0.0%      0.0%
 flops     2 x    19 x    32              6435072     100.0%      0.0%      0.0%
 flops     8 x    15 x     8              7526400     100.0%      0.0%      0.0%
 flops    55 x    13 x    55              7707700     100.0%      0.0%      0.0%
 flops     8 x    13 x     8              7827456     100.0%      0.0%      0.0%
 flops    55 x    15 x    55              8893500     100.0%      0.0%      0.0%
 flops     8 x     2 x    32             10838016     100.0%      0.0%      0.0%
 flops     2 x     8 x    32             10838016     100.0%      0.0%      0.0%
 flops    19 x    19 x    32             11644416     100.0%      0.0%      0.0%
 flops    32 x    32 x    32             12386304     100.0%      0.0%      0.0%
 flops    32 x    32 x    56             14106624     100.0%      0.0%      0.0%
 flops    56 x    32 x    32             14106624     100.0%      0.0%      0.0%
 flops    19 x     8 x    32             17160192     100.0%      0.0%      0.0%
 flops     8 x    19 x    32             17160192     100.0%      0.0%      0.0%
 flops     2 x    32 x     2             22127616     100.0%      0.0%      0.0%
 flops    55 x    32 x    56             24837120     100.0%      0.0%      0.0%
 flops    56 x    32 x    55             24837120     100.0%      0.0%      0.0%
 flops     8 x     8 x    32             29933568     100.0%      0.0%      0.0%
 flops    19 x    32 x     2             35035392     100.0%      0.0%      0.0%
 flops     2 x    32 x    19             35035392     100.0%      0.0%      0.0%
 flops    19 x    32 x    19             55472704     100.0%      0.0%      0.0%
 flops     8 x    32 x     2             59006976     100.0%      0.0%      0.0%
 flops     2 x    32 x     8             59006976     100.0%      0.0%      0.0%
 flops    19 x    32 x     8             93427712     100.0%      0.0%      0.0%
 flops     8 x    32 x    19             93427712     100.0%      0.0%      0.0%
 flops    32 x    32 x    55             96983040     100.0%      0.0%      0.0%
 flops    55 x    32 x    32             96983040     100.0%      0.0%      0.0%
 flops     8 x    32 x     8            157351936     100.0%      0.0%      0.0%
 flops    55 x    32 x    55            170755200     100.0%      0.0%      0.0%
 flops inhomo. stacks                           0       0.0%      0.0%      0.0%
 flops total                         1.333054E+09     100.0%      0.0%      0.0%
 flops max/rank                     35.445008E+06     100.0%      0.0%      0.0%
 matmuls inhomo. stacks                         0       0.0%      0.0%      0.0%
 matmuls total                             427330     100.0%      0.0%      0.0%
 number of processed stacks                 47164     100.0%      0.0%      0.0%
 average stack size                                     9.1       0.0       0.0
 marketing flops                     1.533747E+09
 -------------------------------------------------------------------------------
 # multiplications                             37
 max memory usage/rank             770.674688E+06
 # max total images/rank                        1
 # max 3D layers                                1
 # MPI messages exchanged                   33152
 MPI messages size (bytes):
  total size                       345.408672E+06
  min size                           0.000000E+00
  max size                          25.088000E+03
  average size                      10.418939E+03
 MPI breakdown and total messages size (bytes):
             size <=      128               11004                        0
       128 < size <=     8192                4620                 29522136
      8192 < size <=    32768               17528                315886536
     32768 < size <=   131072                   0                        0
    131072 < size <=  4194304                   0                        0
   4194304 < size <= 16777216                   0                        0
  16777216 < size                               0                        0
 -------------------------------------------------------------------------------

 MEMORY| Estimated peak process memory [MiB]                                 753

 -------------------------------------------------------------------------------
 ----                             MULTIGRID INFO                            ----
 -------------------------------------------------------------------------------
 count for grid        1:        1894405          cutoff [a.u.]          250.00
 count for grid        2:         959638          cutoff [a.u.]           83.33
 count for grid        3:         804273          cutoff [a.u.]           27.78
 count for grid        4:         618615          cutoff [a.u.]            9.26
 count for grid        5:         307072          cutoff [a.u.]            3.09
 total gridlevel count  :        4584003

 -------------------------------------------------------------------------------
 -                                                                             -
 -                         MESSAGE PASSING PERFORMANCE                         -
 -                                                                             -
 -------------------------------------------------------------------------------

 ROUTINE             CALLS      AVE VOLUME [Bytes]
 MP_Group               28
 MP_Bcast              924                 353526.
 MP_Allreduce         3497                  15788.
 MP_Sync           3940263
 MP_Alltoall          1463               12457595.
 MP_ISendRecv        23058                 159626.
 MP_Wait             43342
 MP_comm_split         406
 MP_ISend            17768                 273414.
 MP_IRecv            17768                 280821.
 MP_Recv           3857774                   3840.
 MP_Memory            1372
 -------------------------------------------------------------------------------


 -------------------------------------------------------------------------------
 -                                                                             -
 -                           R E F E R E N C E S                               -
 -                                                                             -
 -------------------------------------------------------------------------------
 
 CP2K version 6.1, the CP2K developers group (2018).
 CP2K is freely available from https://www.cp2k.org/ .

 Schuett, Ole; Messmer, Peter; Hutter, Juerg; VandeVondele, Joost. 
 Electronic Structure Calculations on Graphics Processing Units, John Wiley & Sons, Ltd, 173-190 (2016). 
 GPU-Accelerated Sparse Matrix-Matrix Multiplication for Linear Scaling Density Functional Theory.
 http://dx.doi.org/10.1002/9781118670712.ch8


 Borstnik, U; VandeVondele, J; Weber, V; Hutter, J. 
 PARALLEL COMPUTING, 40 (5-6), 47-58 (2014). 
 Sparse matrix multiplication: The distributed block-compressed sparse
 row library.
 http://dx.doi.org/10.1016/j.parco.2014.03.012


 Hutter, J; Iannuzzi, M; Schiffmann, F; VandeVondele, J. 
 WILEY INTERDISCIPLINARY REVIEWS-COMPUTATIONAL MOLECULAR SCIENCE, 4 (1), 15-25 (2014). 
 CP2K: atomistic simulations of condensed matter systems.
 http://dx.doi.org/10.1002/wcms.1159


 Guidon, M; Hutter, J; VandeVondele, J. 
 JOURNAL OF CHEMICAL THEORY AND COMPUTATION, 5 (11), 3010-3021 (2009). 
 Robust Periodic Hartree-Fock Exchange for Large-Scale Simulations Using
 Gaussian Basis Sets.
 http://dx.doi.org/10.1021/ct900494g


 Guidon, M; Schiffmann, F; Hutter, J; VandeVondele, J. 
 JOURNAL OF CHEMICAL PHYSICS, 128 (21), 214104 (2008). 
 Ab initio molecular dynamics using hybrid density functionals.
 http://dx.doi.org/10.1063/1.2931945


 Krack, M. 
 THEORETICAL CHEMISTRY ACCOUNTS, 114 (1-3), 145-152 (2005). 
 Pseudopotentials for H to Kr optimized for gradient-corrected
 exchange-correlation functionals.
 http://dx.doi.org/10.1007/s00214-005-0655-y


 VandeVondele, J; Krack, M; Mohamed, F; Parrinello, M; Chassaing, T;
 Hutter, J. COMPUTER PHYSICS COMMUNICATIONS, 167 (2), 103-128 (2005). 
 QUICKSTEP: Fast and accurate density functional calculations using a
 mixed Gaussian and plane waves approach.
 http://dx.doi.org/10.1016/j.cpc.2004.12.014


 Frigo, M; Johnson, SG. 
 PROCEEDINGS OF THE IEEE, 93 (2), 216-231 (2005). 
 The design and implementation of FFTW3.
 http://dx.doi.org/10.1109/JPROC.2004.840301


 VandeVondele, J; Hutter, J. 
 JOURNAL OF CHEMICAL PHYSICS, 118 (10), 4365-4369 (2003). 
 An efficient orbital transformation method for electronic structure
 calculations.
 http://dx.doi.org/10.1063/1.1543154


 Hartwigsen, C; Goedecker, S; Hutter, J. 
 PHYSICAL REVIEW B, 58 (7), 3641-3662 (1998). 
 Relativistic separable dual-space Gaussian pseudopotentials from H to Rn.
 http://dx.doi.org/10.1103/PhysRevB.58.3641


 Lippert, G; Hutter, J; Parrinello, M. 
 MOLECULAR PHYSICS, 92 (3), 477-487 (1997). 
 A hybrid Gaussian and plane wave density functional scheme.
 http://dx.doi.org/10.1080/002689797170220


 Goedecker, S; Teter, M; Hutter, J. 
 PHYSICAL REVIEW B, 54 (3), 1703-1710 (1996). 
 Separable dual-space Gaussian pseudopotentials.
 http://dx.doi.org/10.1103/PhysRevB.54.1703


 -------------------------------------------------------------------------------
 -                                                                             -
 -                                T I M I N G                                  -
 -                                                                             -
 -------------------------------------------------------------------------------
 SUBROUTINE                       CALLS  ASD         SELF TIME        TOTAL TIME
                                MAXIMUM       AVERAGE  MAXIMUM  AVERAGE  MAXIMUM
 CP2K                                 1  1.0    0.262    0.356 1102.398 1102.432
 qs_energies                          1  2.0    0.001    0.002 1099.897 1100.452
 qs_energies_properties               1  3.0    0.000    0.000  976.219  976.776
 maximal_orbital_analysis             1  4.0    0.162    0.185  976.219  976.776
 moax_frg                             3  5.0    1.546    1.764  975.629  976.185
 orbmoa_frg                           6  6.0    1.641   78.445  971.534  973.330
 mp_sync                        3940263  8.0  822.944  839.998  822.944  839.998
 pw_to_cube                         114  7.0   13.339  697.806  829.528  830.087
 calculate_wavefunction             114  7.0   73.665   75.310  138.162  139.705
 scf_env_do_scf                       1  3.0    0.000    0.000  120.946  120.946
 init_scf_loop                        1  4.0    0.000    0.017  119.327  119.327
 qs_ks_update_qs_env                  2  5.0    0.000    0.000  118.944  119.074
 rebuild_ks_matrix                    1  6.0    0.000    0.000  118.943  119.072
 qs_ks_build_kohn_sham_matrix         1  7.0    0.170    0.300  118.942  119.072
 hfx_ks_matrix                        1  8.0    0.174    0.296  117.466  117.473
 integrate_four_center                1  9.0    0.010    0.477  117.292  117.467
 integrate_four_center_main           1 10.0    0.000    0.000  107.009  115.382
 integrate_four_center_bin           64 11.0  107.008  115.382  107.008  115.382
 mp_recv_dv                     3857774  8.0    0.725   46.387    0.725   46.387
 pw_transfer                        722  8.0    0.043    0.058   45.040   45.521
 fft_wrap_pw1pw2                    720  9.0    0.007    0.010   44.978   45.453
 fft_wrap_pw1pw2_250                240 10.0    2.679    2.904   39.717   40.339
 fft3d_ps                           720 11.0   19.912   20.674   35.995   36.943
 -------------------------------------------------------------------------------

 The number of warnings for this run is : 0
 
 -------------------------------------------------------------------------------
  **** **** ******  **  PROGRAM ENDED AT                 2020-03-23 16:21:20.530
 ***** ** ***  *** **   PROGRAM RAN ON            cpn-u25-04.cbls.ccr.buffalo.ed
 **    ****   ******    PROGRAM RAN BY                                  pavankum
 ***** **    ** ** **   PROGRAM PROCESS ID                                119990
  **** **  *******  **  PROGRAM STOPPED IN /projects/academic/mdupuis2/pavan/MOA
                                           /Hematite/1d-chain/HF/state0
