 DBCSR| Multiplication driver                                               BLAS
 DBCSR| Multrec recursion limit                                              512
 DBCSR| Multiplication stack size                                           1000
 DBCSR| Maximum elements for images                                    UNLIMITED
 DBCSR| Multiplicative factor virtual images                                   1
 DBCSR| Multiplication size stacks                                             3
 DBCSR| Number of 3D layers                                               SINGLE
 DBCSR| Use MPI memory allocation                                              T
 DBCSR| Use RMA algorithm                                                      F
 DBCSR| Use Communication thread                                               T
 DBCSR| Communication thread load                                             87


  **** **** ******  **  PROGRAM STARTED AT               2019-08-08 11:33:49.810
 ***** ** ***  *** **   PROGRAM STARTED ON        cpn-p28-33.cbls.ccr.buffalo.ed
 **    ****   ******    PROGRAM STARTED BY                              pavankum
 ***** **    ** ** **   PROGRAM PROCESS ID                                 64934
  **** **  *******  **  PROGRAM STARTED IN /projects/academic/mdupuis2/pavan/VAB
                                           _calculation/results_for_paper/3.1D_F
                                           e_7units/blyp_plusU5/point_0.9

 CP2K| version string:                                          CP2K version 6.1
 CP2K| source code revision number:                                    svn:18464
 CP2K| cp2kflags: libint fftw3 libxc parallel mpi3 scalapack libderiv_max_am1=5 
 CP2K|            libint_max_am=6
 CP2K| is freely available from                            https://www.cp2k.org/
 CP2K| Program compiled at                          Fri Nov 30 14:17:09 EST 2018
 CP2K| Program compiled on                       srv-p22-12.cbls.ccr.buffalo.edu
 CP2K| Program compiled for                                                local
 CP2K| Data directory path    /projects/academic/mdupuis2/pavan/cp2k/cp2k-6.1/da
 CP2K| Input file name                                                 input.inp

 GLOBAL| Force Environment number                                              1
 GLOBAL| Basis set file name            /projects/academic/mdupuis2/pavan/BASIS_
 GLOBAL| Potential file name            /projects/academic/mdupuis2/pavan/POTENT
 GLOBAL| MM Potential file name                                     MM_POTENTIAL
 GLOBAL| Coordinate file name                             intermediate_point.xyz
 GLOBAL| Method name                                                        CP2K
 GLOBAL| Project name                                                      p_fe_
 GLOBAL| Preferred FFT library                                             FFTW3
 GLOBAL| Preferred diagonalization lib.                                       SL
 GLOBAL| Run type                                                         ENERGY
 GLOBAL| All-to-all communication in single precision                          F
 GLOBAL| FFTs using library dependent lengths                                  T
 GLOBAL| Global print level                                               MEDIUM
 GLOBAL| Total number of message passing processes                            40
 GLOBAL| Number of threads for this process                                    1
 GLOBAL| This output is from process                                           0
 GLOBAL| CPU model name :  Intel(R) Xeon(R) CPU E5-2650 v3 @ 2.30GHz

 MEMORY| system memory details [Kb]
 MEMORY|                        rank 0           min           max       average
 MEMORY| MemTotal             65684708      65553524      65684708      65619116
 MEMORY| MemFree              60442176      60213492      60442176      60327834
 MEMORY| Buffers                498420        498420        502628        500524
 MEMORY| Cached                 710348        710348        718220        714284
 MEMORY| Slab                   427176        427176        428364        427770
 MEMORY| SReclaimable           257184        257184        257640        257412
 MEMORY| MemLikelyFree        61908128      61691980      61908128      61800054


 *** Fundamental physical constants (SI units) ***

 *** Literature: B. J. Mohr and B. N. Taylor,
 ***             CODATA recommended values of the fundamental physical
 ***             constants: 2006, Web Version 5.1
 ***             http://physics.nist.gov/constants

 Speed of light in vacuum [m/s]                             2.99792458000000E+08
 Magnetic constant or permeability of vacuum [N/A**2]       1.25663706143592E-06
 Electric constant or permittivity of vacuum [F/m]          8.85418781762039E-12
 Planck constant (h) [J*s]                                  6.62606896000000E-34
 Planck constant (h-bar) [J*s]                              1.05457162825177E-34
 Elementary charge [C]                                      1.60217648700000E-19
 Electron mass [kg]                                         9.10938215000000E-31
 Electron g factor [ ]                                     -2.00231930436220E+00
 Proton mass [kg]                                           1.67262163700000E-27
 Fine-structure constant                                    7.29735253760000E-03
 Rydberg constant [1/m]                                     1.09737315685270E+07
 Avogadro constant [1/mol]                                  6.02214179000000E+23
 Boltzmann constant [J/K]                                   1.38065040000000E-23
 Atomic mass unit [kg]                                      1.66053878200000E-27
 Bohr radius [m]                                            5.29177208590000E-11

 *** Conversion factors ***

 [u] -> [a.u.]                                              1.82288848426455E+03
 [Angstrom] -> [Bohr] = [a.u.]                              1.88972613288564E+00
 [a.u.] = [Bohr] -> [Angstrom]                              5.29177208590000E-01
 [a.u.] -> [s]                                              2.41888432650478E-17
 [a.u.] -> [fs]                                             2.41888432650478E-02
 [a.u.] -> [J]                                              4.35974393937059E-18
 [a.u.] -> [N]                                              8.23872205491840E-08
 [a.u.] -> [K]                                              3.15774647902944E+05
 [a.u.] -> [kJ/mol]                                         2.62549961709828E+03
 [a.u.] -> [kcal/mol]                                       6.27509468713739E+02
 [a.u.] -> [Pa]                                             2.94210107994716E+13
 [a.u.] -> [bar]                                            2.94210107994716E+08
 [a.u.] -> [atm]                                            2.90362800883016E+08
 [a.u.] -> [eV]                                             2.72113838565563E+01
 [a.u.] -> [Hz]                                             6.57968392072181E+15
 [a.u.] -> [1/cm] (wave numbers)                            2.19474631370540E+05
 [a.u./Bohr**2] -> [1/cm]                                   5.14048714338585E+03
 

 CELL_TOP| Volume [angstrom^3]:                                        26196.625
 CELL_TOP| Vector a [angstrom    21.385     0.000     0.000    |a| =      21.385
 CELL_TOP| Vector b [angstrom     0.000    35.000     0.000    |b| =      35.000
 CELL_TOP| Vector c [angstrom     0.000     0.000    35.000    |c| =      35.000
 CELL_TOP| Angle (b,c), alpha [degree]:                                   90.000
 CELL_TOP| Angle (a,c), beta  [degree]:                                   90.000
 CELL_TOP| Angle (a,b), gamma [degree]:                                   90.000
 CELL_TOP| Numerically orthorhombic:                                         YES

 CELL| Volume [angstrom^3]:                                            26196.625
 CELL| Vector a [angstrom]:      21.385     0.000     0.000    |a| =      21.385
 CELL| Vector b [angstrom]:       0.000    35.000     0.000    |b| =      35.000
 CELL| Vector c [angstrom]:       0.000     0.000    35.000    |c| =      35.000
 CELL| Angle (b,c), alpha [degree]:                                       90.000
 CELL| Angle (a,c), beta  [degree]:                                       90.000
 CELL| Angle (a,b), gamma [degree]:                                       90.000
 CELL| Numerically orthorhombic:                                             YES

 CELL_REF| Volume [angstrom^3]:                                        26196.625
 CELL_REF| Vector a [angstrom    21.385     0.000     0.000    |a| =      21.385
 CELL_REF| Vector b [angstrom     0.000    35.000     0.000    |b| =      35.000
 CELL_REF| Vector c [angstrom     0.000     0.000    35.000    |c| =      35.000
 CELL_REF| Angle (b,c), alpha [degree]:                                   90.000
 CELL_REF| Angle (a,c), beta  [degree]:                                   90.000
 CELL_REF| Angle (a,b), gamma [degree]:                                   90.000
 CELL_REF| Numerically orthorhombic:                                         YES

 *******************************************************************************
 *******************************************************************************
 **                                                                           **
 **     #####                         ##              ##                      **
 **    ##   ##            ##          ##              ##                      **
 **   ##     ##                       ##            ######                    **
 **   ##     ##  ##   ##  ##   #####  ##  ##   ####   ##    #####    #####    **
 **   ##     ##  ##   ##  ##  ##      ## ##   ##      ##   ##   ##  ##   ##   **
 **   ##  ## ##  ##   ##  ##  ##      ####     ###    ##   ######   ######    **
 **    ##  ###   ##   ##  ##  ##      ## ##      ##   ##   ##       ##        **
 **     #######   #####   ##   #####  ##  ##  ####    ##    #####   ##        **
 **           ##                                                    ##        **
 **                                                                           **
 **                                                ... make the atoms dance   **
 **                                                                           **
 **            Copyright (C) by CP2K developers group (2000 - 2018)           **
 **                                                                           **
 *******************************************************************************

 DFT| Spin unrestricted (spin-polarized) Kohn-Sham calculation               UKS
 DFT| Multiplicity                                                            35
 DFT| Number of spin states                                                    2
 DFT| Charge                                                                   6
 DFT| Self-interaction correction (SIC)                                       NO
 DFT| Cutoffs: density                                              1.000000E-10
 DFT|          gradient                                             1.000000E-10
 DFT|          tau                                                  1.000000E-10
 DFT|          cutoff_smoothing_range                               0.000000E+00
 DFT| XC density smoothing                                                  NONE
 DFT| XC derivatives                                                          PW

 DFT+U| Method                                                          MULLIKEN
 DFT+U| Check atomic kind information for details
 FUNCTIONAL| ROUTINE=NEW
 FUNCTIONAL| BECKE88:
 FUNCTIONAL| A. Becke, Phys. Rev. A 38, 3098 (1988) {LSD version}               
 FUNCTIONAL| LYP:
 FUNCTIONAL| C. Lee, W. Yang, R.G. Parr, Phys. Rev. B, 37, 785 (1988) {LSD versi
 FUNCTIONAL| on}                                                                

 QS| Method:                                                                 GPW
 QS| Density plane wave grid type                        NON-SPHERICAL FULLSPACE
 QS| Number of grid levels:                                                   10
 QS| Density cutoff [a.u.]:                                                325.0
 QS| Multi grid cutoff [a.u.]: 1) grid level                               325.0
 QS|                           2) grid level                               108.3
 QS|                           3) grid level                                36.1
 QS|                           4) grid level                                12.0
 QS|                           5) grid level                                 4.0
 QS|                           6) grid level                                 1.3
 QS|                           7) grid level                                 0.4
 QS|                           8) grid level                                 0.1
 QS|                           9) grid level                                 0.0
 QS|                          10) grid level                                 0.0
 QS| Grid level progression factor:                                          3.0
 QS| Relative density cutoff [a.u.]:                                        30.0
 QS| Consistent realspace mapping and integration 
 QS| Interaction thresholds: eps_pgf_orb:                                1.0E-10
 QS|                         eps_filter_matrix:                          0.0E+00
 QS|                         eps_core_charge:                            1.0E-14
 QS|                         eps_rho_gspace:                             1.0E-12
 QS|                         eps_rho_rspace:                             1.0E-12
 QS|                         eps_gvg_rspace:                             1.0E-06
 QS|                         eps_ppl:                                    1.0E-02
 QS|                         eps_ppnl:                                   1.0E-08


 ATOMIC KIND INFORMATION

  1. Atomic kind: Fe                                    Number of atoms:       7

     Orbital Basis Set                                                   mod-DZV

       Number of orbital shell sets:                                           1
       Number of orbital shells:                                               7
       Number of primitive Cartesian functions:                                6
       Number of Cartesian basis functions:                                   21
       Number of spherical basis functions:                                   19
       Norm type:                                                              2

       Normalised Cartesian orbitals:

                        Set   Shell   Orbital            Exponent    Coefficient

                          1       1    2s                8.424366      -0.545589
                                                         4.825220      -0.832336
                                                         2.198939       0.958990
                                                         0.891661       0.416271
                                                         0.316231       0.012631
                                                         0.103474      -0.013505

                          1       2    3s                8.424366      -0.106056
                                                         4.825220      -0.104587
                                                         2.198939       0.052318
                                                         0.891661      -0.169042
                                                         0.316231       0.061854
                                                         0.103474       0.122891

                          1       3    4s                8.424366      -0.333477
                                                         4.825220      -0.289267
                                                         2.198939      -0.125861
                                                         0.891661      -1.004000
                                                         0.316231       0.780774
                                                         0.103474      -0.187846

                          1       4    3px               8.424366      -1.658234
                                                         4.825220       1.618912
                                                         2.198939       1.969078
                                                         0.891661       0.523780
                                                         0.316231       0.024574
                                                         0.103474      -0.000798
                          1       4    3py               8.424366      -1.658234
                                                         4.825220       1.618912
                                                         2.198939       1.969078
                                                         0.891661       0.523780
                                                         0.316231       0.024574
                                                         0.103474      -0.000798
                          1       4    3pz               8.424366      -1.658234
                                                         4.825220       1.618912
                                                         2.198939       1.969078
                                                         0.891661       0.523780
                                                         0.316231       0.024574
                                                         0.103474      -0.000798

                          1       5    4px               8.424366      -0.105249
                                                         4.825220      -0.126123
                                                         2.198939      -0.349657
                                                         0.891661      -0.133470
                                                         0.316231       0.170554
                                                         0.103474       0.054381
                          1       5    4py               8.424366      -0.105249
                                                         4.825220      -0.126123
                                                         2.198939      -0.349657
                                                         0.891661      -0.133470
                                                         0.316231       0.170554
                                                         0.103474       0.054381
                          1       5    4pz               8.424366      -0.105249
                                                         4.825220      -0.126123
                                                         2.198939      -0.349657
                                                         0.891661      -0.133470
                                                         0.316231       0.170554
                                                         0.103474       0.054381

                          1       6    4dx2              8.424366       7.918298
                                                         4.825220       5.112663
                                                         2.198939       2.118663
                                                         0.891661       0.465004
                                                         0.316231       0.065856
                                                         0.103474       0.002769
                          1       6    4dxy              8.424366      13.714895
                                                         4.825220       8.855393
                                                         2.198939       3.669632
                                                         0.891661       0.805411
                                                         0.316231       0.114066
                                                         0.103474       0.004796
                          1       6    4dxz              8.424366      13.714895
                                                         4.825220       8.855393
                                                         2.198939       3.669632
                                                         0.891661       0.805411
                                                         0.316231       0.114066
                                                         0.103474       0.004796
                          1       6    4dy2              8.424366       7.918298
                                                         4.825220       5.112663
                                                         2.198939       2.118663
                                                         0.891661       0.465004
                                                         0.316231       0.065856
                                                         0.103474       0.002769
                          1       6    4dyz              8.424366      13.714895
                                                         4.825220       8.855393
                                                         2.198939       3.669632
                                                         0.891661       0.805411
                                                         0.316231       0.114066
                                                         0.103474       0.004796
                          1       6    4dz2              8.424366       7.918298
                                                         4.825220       5.112663
                                                         2.198939       2.118663
                                                         0.891661       0.465004
                                                         0.316231       0.065856
                                                         0.103474       0.002769

                          1       7    5dx2              8.424366      -4.223614
                                                         4.825220      -1.970584
                                                         2.198939      -1.543490
                                                         0.891661      -0.041381
                                                         0.316231       0.082821
                                                         0.103474       0.021964
                          1       7    5dxy              8.424366      -7.315513
                                                         4.825220      -3.413151
                                                         2.198939      -2.673404
                                                         0.891661      -0.071673
                                                         0.316231       0.143450
                                                         0.103474       0.038042
                          1       7    5dxz              8.424366      -7.315513
                                                         4.825220      -3.413151
                                                         2.198939      -2.673404
                                                         0.891661      -0.071673
                                                         0.316231       0.143450
                                                         0.103474       0.038042
                          1       7    5dy2              8.424366      -4.223614
                                                         4.825220      -1.970584
                                                         2.198939      -1.543490
                                                         0.891661      -0.041381
                                                         0.316231       0.082821
                                                         0.103474       0.021964
                          1       7    5dyz              8.424366      -7.315513
                                                         4.825220      -3.413151
                                                         2.198939      -2.673404
                                                         0.891661      -0.071673
                                                         0.316231       0.143450
                                                         0.103474       0.038042
                          1       7    5dz2              8.424366      -4.223614
                                                         4.825220      -1.970584
                                                         2.198939      -1.543490
                                                         0.891661      -0.041381
                                                         0.316231       0.082821
                                                         0.103474       0.021964

     GTH Potential information for                                  GTH-BLYP-q16

       Description:                       Goedecker-Teter-Hutter pseudopotential
                                           Goedecker et al., PRB 54, 1703 (1996)
                                          Hartwigsen et al., PRB 58, 3641 (1998)
                                                      Krack, TCA 114, 145 (2005)

       Gaussian exponent of the core charge distribution:               3.858025
       Electronic configuration (s p d ...):                           4   6   6

       Parameters of the local part of the GTH pseudopotential:

                          rloc        C1          C2          C3          C4
                        0.360000    7.011025   -0.222747

       Parameters of the non-local part of the GTH pseudopotential:

                   l      r(l)      h(i,j,l)

                   0    0.276205    0.611496    7.992357
                                    7.992357  -10.318089
                   1    0.247130   -8.710556    8.684169
                                    8.684169  -10.275248
                   2    0.223534  -12.411504

     A DFT+U correction is applied to atoms of this atomic kind:
       Angular quantum momentum number L:                                      2
       U(eff) = (U - J) value in [eV]:                                     5.000

  2. Atomic kind: O                                     Number of atoms:      28

     Orbital Basis Set                                                   mod-DZV

       Number of orbital shell sets:                                           1
       Number of orbital shells:                                               4
       Number of primitive Cartesian functions:                                5
       Number of Cartesian basis functions:                                    8
       Number of spherical basis functions:                                    8
       Norm type:                                                              2

       Normalised Cartesian orbitals:

                        Set   Shell   Orbital            Exponent    Coefficient

                          1       1    2s               10.389228       0.396646
                                                         3.849621       0.208811
                                                         1.388401      -0.301641
                                                         0.496955      -0.274061
                                                         0.162492      -0.033677

                          1       2    3s               10.389228       0.303673
                                                         3.849621       0.240943
                                                         1.388401      -0.313066
                                                         0.496955      -0.043055
                                                         0.162492       0.213991

                          1       3    3px              10.389228      -1.530415
                                                         3.849621      -1.371928
                                                         1.388401      -0.761951
                                                         0.496955      -0.253695
                                                         0.162492      -0.035541
                          1       3    3py              10.389228      -1.530415
                                                         3.849621      -1.371928
                                                         1.388401      -0.761951
                                                         0.496955      -0.253695
                                                         0.162492      -0.035541
                          1       3    3pz              10.389228      -1.530415
                                                         3.849621      -1.371928
                                                         1.388401      -0.761951
                                                         0.496955      -0.253695
                                                         0.162492      -0.035541

                          1       4    4px              10.389228      -0.565392
                                                         3.849621      -0.038231
                                                         1.388401      -0.382373
                                                         0.496955       0.179070
                                                         0.162492       0.122714
                          1       4    4py              10.389228      -0.565392
                                                         3.849621      -0.038231
                                                         1.388401      -0.382373
                                                         0.496955       0.179070
                                                         0.162492       0.122714
                          1       4    4pz              10.389228      -0.565392
                                                         3.849621      -0.038231
                                                         1.388401      -0.382373
                                                         0.496955       0.179070
                                                         0.162492       0.122714

     GTH Potential information for                                   GTH-BLYP-q6

       Description:                       Goedecker-Teter-Hutter pseudopotential
                                           Goedecker et al., PRB 54, 1703 (1996)
                                          Hartwigsen et al., PRB 58, 3641 (1998)
                                                      Krack, TCA 114, 145 (2005)

       Gaussian exponent of the core charge distribution:               8.438331
       Electronic configuration (s p d ...):                               2   4

       Parameters of the local part of the GTH pseudopotential:

                          rloc        C1          C2          C3          C4
                        0.243420  -16.991892    2.566142

       Parameters of the non-local part of the GTH pseudopotential:

                   l      r(l)      h(i,j,l)

                   0    0.220831   18.388851
                   1    0.217201

  3. Atomic kind: H                                     Number of atoms:      42

     Orbital Basis Set                                                   mod-DZV

       Number of orbital shell sets:                                           1
       Number of orbital shells:                                               2
       Number of primitive Cartesian functions:                                5
       Number of Cartesian basis functions:                                    2
       Number of spherical basis functions:                                    2
       Norm type:                                                              2

       Normalised Cartesian orbitals:

                        Set   Shell   Orbital            Exponent    Coefficient

                          1       1    2s               10.068468      -0.133023
                                                         2.680223      -0.177618
                                                         0.791502      -0.258419
                                                         0.239116      -0.107525
                                                         0.082193      -0.014019

                          1       2    3s               10.068468       0.344673
                                                         2.680223       1.819821
                                                         0.791502      -0.999069
                                                         0.239116       0.017430
                                                         0.082193       0.082660

     GTH Potential information for                                   GTH-BLYP-q1

       Description:                       Goedecker-Teter-Hutter pseudopotential
                                           Goedecker et al., PRB 54, 1703 (1996)
                                          Hartwigsen et al., PRB 58, 3641 (1998)
                                                      Krack, TCA 114, 145 (2005)

       Gaussian exponent of the core charge distribution:              12.500000
       Electronic configuration (s p d ...):                                   1

       Parameters of the local part of the GTH pseudopotential:

                          rloc        C1          C2          C3          C4
                        0.200000   -4.195961    0.730498


 MOLECULE KIND INFORMATION


 All atoms are their own molecule, skipping detailed information


 TOTAL NUMBERS AND MAXIMUM NUMBERS

  Total number of            - Atomic kinds:                                   3
                             - Atoms:                                         77
                             - Shell sets:                                    77
                             - Shells:                                       245
                             - Primitive Cartesian functions:                392
                             - Cartesian basis functions:                    455
                             - Spherical basis functions:                    441

  Maximum angular momentum of- Orbital basis functions:                        2
                             - Local part of the GTH pseudopotential:          2
                             - Non-local part of the GTH pseudopotential:      3


 MODULE QUICKSTEP:  ATOMIC COORDINATES IN angstrom

  Atom  Kind  Element       X           Y           Z          Z(eff)       Mass

       1     1 Fe  26   18.338964   -0.000009   -0.000013     16.00      55.8450
       2     1 Fe  26   15.270360   -0.000356   -0.000048     16.00      55.8450
       3     1 Fe  26   12.186894   -0.000097   -0.000305     16.00      55.8450
       4     1 Fe  26    9.166363    0.020533    0.000069     16.00      55.8450
       5     1 Fe  26    6.152970    0.003229    0.000016     16.00      55.8450
       6     1 Fe  26    3.075732   -0.000365   -0.000382     16.00      55.8450
       7     1 Fe  26    0.003374   -0.000141   -0.002189     16.00      55.8450
       8     2 O    8   18.337305   -0.026742    2.114105      6.00      15.9994
       9     2 O    8   18.336092    0.026690   -2.114084      6.00      15.9994
      10     2 O    8   19.860641   -1.261989   -0.022285      6.00      15.9994
      11     2 O    8   19.860636    1.261739    0.020888      6.00      15.9994
      12     2 O    8   15.316617   -0.022607    2.153156      6.00      15.9994
      13     2 O    8   15.316301    0.022459   -2.152906      6.00      15.9994
      14     2 O    8   16.817429   -1.258161   -0.021809      6.00      15.9994
      15     2 O    8   16.817714    1.257741    0.022135      6.00      15.9994
      16     2 O    8   12.279038    0.032371    2.166860      6.00      15.9994
      17     2 O    8   12.278662   -0.032881   -2.166304      6.00      15.9994
      18     2 O    8   13.781908   -1.256709    0.021406      6.00      15.9994
      19     2 O    8   13.785407    1.256723   -0.022133      6.00      15.9994
      20     2 O    8    9.177032    0.030751    2.223780      6.00      15.9994
      21     2 O    8    9.177075    0.027530   -2.225212      6.00      15.9994
      22     2 O    8   10.790901   -1.296207    0.024682      6.00      15.9994
      23     2 O    8   10.812208    1.317277   -0.023913      6.00      15.9994
      24     2 O    8    6.063912    0.032284    2.176145      6.00      15.9994
      25     2 O    8    6.064501   -0.025970   -2.176156      6.00      15.9994
      26     2 O    8    7.562716   -1.299772    0.023531      6.00      15.9994
      27     2 O    8    7.545100    1.324105   -0.023102      6.00      15.9994
      28     2 O    8    3.015897   -0.028907    2.155865      6.00      15.9994
      29     2 O    8    3.016543    0.028426   -2.156906      6.00      15.9994
      30     2 O    8    4.550332   -1.260493    0.015476      6.00      15.9994
      31     2 O    8    4.543882    1.263541   -0.016705      6.00      15.9994
      32     2 O    8   -0.020605   -0.027147    2.114655      6.00      15.9994
      33     2 O    8   -0.021193    0.027066   -2.119690      6.00      15.9994
      34     2 O    8    1.518948   -1.257333   -0.026845      6.00      15.9994
      35     2 O    8    1.518237    1.256796    0.022087      6.00      15.9994
      36     3 H    1   18.268817   -0.781601   -2.681513      1.00       1.0079
      37     3 H    1   18.238865    0.843875   -2.663948      1.00       1.0079
      38     3 H    1   18.241569   -0.844001    2.664547      1.00       1.0079
      39     3 H    1   18.265839    0.781596    2.681016      1.00       1.0079
      40     3 H    1   19.861321   -2.250895   -0.025389      1.00       1.0079
      41     3 H    1   19.861515    2.250636    0.023907      1.00       1.0079
      42     3 H    1   15.166545   -0.790477   -2.701942      1.00       1.0079
      43     3 H    1   15.061838    0.828021   -2.669754      1.00       1.0079
      44     3 H    1   15.070977   -0.829892    2.672137      1.00       1.0079
      45     3 H    1   15.158871    0.789729    2.700743      1.00       1.0079
      46     3 H    1   16.808185   -2.247044   -0.021428      1.00       1.0079
      47     3 H    1   16.807919    2.246619    0.021259      1.00       1.0079
      48     3 H    1   12.097812   -0.856805   -2.688619      1.00       1.0079
      49     3 H    1   12.040425    0.767568   -2.700954      1.00       1.0079
      50     3 H    1   12.054544   -0.769768    2.704982      1.00       1.0079
      51     3 H    1   12.085510    0.855237    2.685729      1.00       1.0079
      52     3 H    1   13.757579   -2.244655    0.017918      1.00       1.0079
      53     3 H    1   13.760571    2.244559   -0.017211      1.00       1.0079
      54     3 H    1    9.151686   -0.780661   -2.794708      1.00       1.0079
      55     3 H    1    9.153397    0.846814   -2.779729      1.00       1.0079
      56     3 H    1    9.154472   -0.785384    2.783093      1.00       1.0079
      57     3 H    1    9.150040    0.842440    2.788324      1.00       1.0079
      58     3 H    1   10.772487   -2.283025    0.028589      1.00       1.0079
      59     3 H    1   10.806610    2.304602   -0.029724      1.00       1.0079
      60     3 H    1    6.213908   -0.850595   -2.704450      1.00       1.0079
      61     3 H    1    6.278192    0.774778   -2.715027      1.00       1.0079
      62     3 H    1    6.264153   -0.769960    2.718956      1.00       1.0079
      63     3 H    1    6.224749    0.856300    2.701631      1.00       1.0079
      64     3 H    1    7.575808   -2.286566    0.026769      1.00       1.0079
      65     3 H    1    7.547083    2.310913   -0.027787      1.00       1.0079
      66     3 H    1    3.167652   -0.782865   -2.707780      1.00       1.0079
      67     3 H    1    3.269199    0.836319   -2.673531      1.00       1.0079
      68     3 H    1    3.258218   -0.838405    2.674973      1.00       1.0079
      69     3 H    1    3.175089    0.781864    2.705061      1.00       1.0079
      70     3 H    1    4.575584   -2.248323    0.011562      1.00       1.0079
      71     3 H    1    4.567434    2.251380   -0.012594      1.00       1.0079
      72     3 H    1    0.058357   -0.781095   -2.686053      1.00       1.0079
      73     3 H    1    0.084534    0.844321   -2.670291      1.00       1.0079
      74     3 H    1    0.080616   -0.844340    2.666412      1.00       1.0079
      75     3 H    1    0.060034    0.781122    2.680741      1.00       1.0079
      76     3 H    1    1.530445   -2.245884   -0.026685      1.00       1.0079
      77     3 H    1    1.530387    2.245380    0.021993      1.00       1.0079




 SCF PARAMETERS         Density guess:                                   RESTART
                        --------------------------------------------------------
                        max_scf:                                            1000
                        max_scf_history:                                       0
                        max_diis:                                              4
                        --------------------------------------------------------
                        eps_scf:                                        1.00E-06
                        eps_scf_history:                                0.00E+00
                        eps_diis:                                       1.00E-01
                        eps_eigval:                                     1.00E-05
                        --------------------------------------------------------
                        level_shift [a.u.]:                                 0.00
                        --------------------------------------------------------
                        Outer loop SCF in use 
                        No variables optimised in outer loop
                        eps_scf                                         1.00E-06
                        max_scf                                              500
                        No outer loop optimization
                        step_size                                       5.00E-01

 PW_GRID| Information for grid number                                          1
 PW_GRID| Grid distributed over                                    40 processors
 PW_GRID| Real space group dimensions                                    40    1
 PW_GRID| the grid is blocked:                                                NO
 PW_GRID| Cutoff [a.u.]                                                    325.0
 PW_GRID| spherical cutoff:                                                   NO
 PW_GRID|   Bounds   1           -165     164                Points:         330
 PW_GRID|   Bounds   2           -270     269                Points:         540
 PW_GRID|   Bounds   3           -270     269                Points:         540
 PW_GRID| Volume element (a.u.^3)  0.1837E-02     Volume (a.u.^3)    176783.5904
 PW_GRID| Grid span                                                    FULLSPACE
 PW_GRID|   Distribution                         Average         Max         Min
 PW_GRID|   G-Vectors                          2405700.0     2405700     2405700
 PW_GRID|   G-Rays                                7290.0        7290        7290
 PW_GRID|   Real Space Points                  2405700.0     2624400     2332800

 PW_GRID| Information for grid number                                          2
 PW_GRID| Grid distributed over                                    40 processors
 PW_GRID| Real space group dimensions                                    40    1
 PW_GRID| the grid is blocked:                                                NO
 PW_GRID| Cutoff [a.u.]                                                    108.3
 PW_GRID| spherical cutoff:                                                   NO
 PW_GRID|   Bounds   1            -94      94                Points:         189
 PW_GRID|   Bounds   2           -157     157                Points:         315
 PW_GRID|   Bounds   3           -157     157                Points:         315
 PW_GRID| Volume element (a.u.^3)  0.9427E-02     Volume (a.u.^3)    176783.5904
 PW_GRID| Grid span                                                    FULLSPACE
 PW_GRID|   Distribution                         Average         Max         Min
 PW_GRID|   G-Vectors                           468838.1      469098      468720
 PW_GRID|   G-Rays                                2480.6        2482        2480
 PW_GRID|   Real Space Points                   468838.1      496125      396900

 PW_GRID| Information for grid number                                          3
 PW_GRID| Grid distributed over                                    40 processors
 PW_GRID| Real space group dimensions                                    40    1
 PW_GRID| the grid is blocked:                                                NO
 PW_GRID| Cutoff [a.u.]                                                     36.1
 PW_GRID| spherical cutoff:                                                   NO
 PW_GRID|   Bounds   1            -55      54                Points:         110
 PW_GRID|   Bounds   2            -90      89                Points:         180
 PW_GRID|   Bounds   3            -90      89                Points:         180
 PW_GRID| Volume element (a.u.^3)  0.4960E-01     Volume (a.u.^3)    176783.5904
 PW_GRID| Grid span                                                    FULLSPACE
 PW_GRID|   Distribution                         Average         Max         Min
 PW_GRID|   G-Vectors                            89100.0       89320       88990
 PW_GRID|   G-Rays                                 810.0         812         809
 PW_GRID|   Real Space Points                    89100.0       97200       64800

 PW_GRID| Information for grid number                                          4
 PW_GRID| Grid distributed over                                    40 processors
 PW_GRID| Real space group dimensions                                    40    1
 PW_GRID| the grid is blocked:                                                NO
 PW_GRID| Cutoff [a.u.]                                                     12.0
 PW_GRID| spherical cutoff:                                                   NO
 PW_GRID|   Bounds   1            -31      31                Points:          63
 PW_GRID|   Bounds   2            -52      52                Points:         105
 PW_GRID|   Bounds   3            -52      52                Points:         105
 PW_GRID| Volume element (a.u.^3)  0.2545         Volume (a.u.^3)    176783.5904
 PW_GRID| Grid span                                                    FULLSPACE
 PW_GRID|   Distribution                         Average         Max         Min
 PW_GRID|   G-Vectors                            17364.4       17451       17262
 PW_GRID|   G-Rays                                 275.6         277         274
 PW_GRID|   Real Space Points                    17364.4       22050       11025

 PW_GRID| Information for grid number                                          5
 PW_GRID| Grid distributed over                                    40 processors
 PW_GRID| Real space group dimensions                                    40    1
 PW_GRID| the grid is blocked:                                                NO
 PW_GRID| Cutoff [a.u.]                                                      4.0
 PW_GRID| spherical cutoff:                                                   NO
 PW_GRID|   Bounds   1            -20      19                Points:          40
 PW_GRID|   Bounds   2            -30      29                Points:          60
 PW_GRID|   Bounds   3            -30      29                Points:          60
 PW_GRID| Volume element (a.u.^3)   1.228         Volume (a.u.^3)    176783.5904
 PW_GRID| Grid span                                                    FULLSPACE
 PW_GRID|   Distribution                         Average         Max         Min
 PW_GRID|   G-Vectors                             3600.0        3680        3560
 PW_GRID|   G-Rays                                  90.0          92          89
 PW_GRID|   Real Space Points                     3600.0        3600        3600

 PW_GRID| Information for grid number                                          6
 PW_GRID| Grid distributed over                                    40 processors
 PW_GRID| Real space group dimensions                                     5    8
 PW_GRID| the grid is blocked:                                                NO
 PW_GRID| Cutoff [a.u.]                                                      1.3
 PW_GRID| spherical cutoff:                                                   NO
 PW_GRID|   Bounds   1            -10      10                Points:          21
 PW_GRID|   Bounds   2            -17      17                Points:          35
 PW_GRID|   Bounds   3            -17      17                Points:          35
 PW_GRID| Volume element (a.u.^3)   6.872         Volume (a.u.^3)    176783.5904
 PW_GRID| Grid span                                                    FULLSPACE
 PW_GRID|   Distribution                         Average         Max         Min
 PW_GRID|   G-Vectors                              643.1         714         588
 PW_GRID|   G-Rays                                  30.6          34          28
 PW_GRID|   Real Space Points                      643.1         875         560

 PW_GRID| Information for grid number                                          7
 PW_GRID| Grid distributed over                                    40 processors
 PW_GRID| Real space group dimensions                                     5    8
 PW_GRID| the grid is blocked:                                                NO
 PW_GRID| Cutoff [a.u.]                                                      0.4
 PW_GRID| spherical cutoff:                                                   NO
 PW_GRID|   Bounds   1             -7       6                Points:          14
 PW_GRID|   Bounds   2            -10       9                Points:          20
 PW_GRID|   Bounds   3            -10       9                Points:          20
 PW_GRID| Volume element (a.u.^3)   31.57         Volume (a.u.^3)    176783.5904
 PW_GRID| Grid span                                                    FULLSPACE
 PW_GRID|   Distribution                         Average         Max         Min
 PW_GRID|   G-Vectors                              140.0         168         126
 PW_GRID|   G-Rays                                  10.0          12           9
 PW_GRID|   Real Space Points                      140.0         180          80

 PW_GRID| Information for grid number                                          8
 PW_GRID| Grid distributed over                                    40 processors
 PW_GRID| Real space group dimensions                                     5    8
 PW_GRID| the grid is blocked:                                                NO
 PW_GRID| Cutoff [a.u.]                                                      0.1
 PW_GRID| spherical cutoff:                                                   NO
 PW_GRID|   Bounds   1             -3       3                Points:           7
 PW_GRID|   Bounds   2             -5       5                Points:          11
 PW_GRID|   Bounds   3             -5       5                Points:          11
 PW_GRID| Volume element (a.u.^3)   208.7         Volume (a.u.^3)    176783.5904
 PW_GRID| Grid span                                                    FULLSPACE
 PW_GRID|   Distribution                         Average         Max         Min
 PW_GRID|   G-Vectors                               21.2          35          14
 PW_GRID|   G-Rays                                   3.0           5           2
 PW_GRID|   Real Space Points                       21.2          44          11

 PW_GRID| Information for grid number                                          9
 PW_GRID| Grid distributed over                                    40 processors
 PW_GRID| Real space group dimensions                                     5    8
 PW_GRID| the grid is blocked:                                                NO
 PW_GRID| Cutoff [a.u.]                                                      0.0
 PW_GRID| spherical cutoff:                                                   NO
 PW_GRID|   Bounds   1             -2       2                Points:           5
 PW_GRID|   Bounds   2             -3       3                Points:           7
 PW_GRID|   Bounds   3             -3       3                Points:           7
 PW_GRID| Volume element (a.u.^3)   721.6         Volume (a.u.^3)    176783.5904
 PW_GRID| Grid span                                                    FULLSPACE
 PW_GRID|   Distribution                         Average         Max         Min
 PW_GRID|   G-Vectors                                6.1          15           0
 PW_GRID|   G-Rays                                   1.2           3           0
 PW_GRID|   Real Space Points                        6.1           7           0

 PW_GRID| Information for grid number                                         10
 PW_GRID| Grid distributed over                                    40 processors
 PW_GRID| Real space group dimensions                                     5    8
 PW_GRID| the grid is blocked:                                                NO
 PW_GRID| Cutoff [a.u.]                                                      0.0
 PW_GRID| spherical cutoff:                                                   NO
 PW_GRID|   Bounds   1             -1       1                Points:           3
 PW_GRID|   Bounds   2             -1       1                Points:           3
 PW_GRID|   Bounds   3             -1       1                Points:           3
 PW_GRID| Volume element (a.u.^3)   6548.         Volume (a.u.^3)    176783.5904
 PW_GRID| Grid span                                                    FULLSPACE
 PW_GRID|   Distribution                         Average         Max         Min
 PW_GRID|   G-Vectors                                0.7           3           0
 PW_GRID|   G-Rays                                   0.2           1           0
 PW_GRID|   Real Space Points                        0.7           3           0

 POISSON| Solver                                                        PERIODIC
 POISSON| Periodicity                                                        XYZ

 RS_GRID| Information for grid number                                          1
 RS_GRID|   Bounds   1           -165     164                Points:         330
 RS_GRID|   Bounds   2           -270     269                Points:         540
 RS_GRID|   Bounds   3           -270     269                Points:         540
 RS_GRID| Real space distribution over                                  5 groups
 RS_GRID| Real space distribution along direction                              2
 RS_GRID| Border size                                                         25
 RS_GRID| Real space distribution over                                  8 groups
 RS_GRID| Real space distribution along direction                              3
 RS_GRID| Border size                                                         25
 RS_GRID|   Distribution                         Average         Max         Min
 RS_GRID|   Planes                                 158.0         158         158
 RS_GRID|   Distribution                         Average         Max         Min
 RS_GRID|   Planes                                 117.5         118         117

 RS_GRID| Information for grid number                                          2
 RS_GRID|   Bounds   1            -94      94                Points:         189
 RS_GRID|   Bounds   2           -157     157                Points:         315
 RS_GRID|   Bounds   3           -157     157                Points:         315
 RS_GRID| Real space distribution over                                  5 groups
 RS_GRID| Real space distribution along direction                              2
 RS_GRID| Border size                                                         28
 RS_GRID| Real space distribution over                                  8 groups
 RS_GRID| Real space distribution along direction                              3
 RS_GRID| Border size                                                         28
 RS_GRID|   Distribution                         Average         Max         Min
 RS_GRID|   Planes                                 119.0         119         119
 RS_GRID|   Distribution                         Average         Max         Min
 RS_GRID|   Planes                                  95.4          96          95

 RS_GRID| Information for grid number                                          3
 RS_GRID|   Bounds   1            -55      54                Points:         110
 RS_GRID|   Bounds   2            -90      89                Points:         180
 RS_GRID|   Bounds   3            -90      89                Points:         180
 RS_GRID| Real space fully replicated
 RS_GRID| Group size                                                           1

 RS_GRID| Information for grid number                                          4
 RS_GRID|   Bounds   1            -31      31                Points:          63
 RS_GRID|   Bounds   2            -52      52                Points:         105
 RS_GRID|   Bounds   3            -52      52                Points:         105
 RS_GRID| Real space fully replicated
 RS_GRID| Group size                                                           1

 RS_GRID| Information for grid number                                          5
 RS_GRID|   Bounds   1            -20      19                Points:          40
 RS_GRID|   Bounds   2            -30      29                Points:          60
 RS_GRID|   Bounds   3            -30      29                Points:          60
 RS_GRID| Real space fully replicated
 RS_GRID| Group size                                                           1

 RS_GRID| Information for grid number                                          6
 RS_GRID|   Bounds   1            -10      10                Points:          21
 RS_GRID|   Bounds   2            -17      17                Points:          35
 RS_GRID|   Bounds   3            -17      17                Points:          35
 RS_GRID| Real space fully replicated
 RS_GRID| Group size                                                           1

 RS_GRID| Information for grid number                                          7
 RS_GRID|   Bounds   1             -7       6                Points:          14
 RS_GRID|   Bounds   2            -10       9                Points:          20
 RS_GRID|   Bounds   3            -10       9                Points:          20
 RS_GRID| Real space fully replicated
 RS_GRID| Group size                                                           1

 RS_GRID| Information for grid number                                          8
 RS_GRID|   Bounds   1             -3       3                Points:           7
 RS_GRID|   Bounds   2             -5       5                Points:          11
 RS_GRID|   Bounds   3             -5       5                Points:          11
 RS_GRID| Real space fully replicated
 RS_GRID| Group size                                                           1

 RS_GRID| Information for grid number                                          9
 RS_GRID|   Bounds   1             -2       2                Points:           5
 RS_GRID|   Bounds   2             -3       3                Points:           7
 RS_GRID|   Bounds   3             -3       3                Points:           7
 RS_GRID| Real space fully replicated
 RS_GRID| Group size                                                           1

 RS_GRID| Information for grid number                                         10
 RS_GRID|   Bounds   1             -1       1                Points:           3
 RS_GRID|   Bounds   2             -1       1                Points:           3
 RS_GRID|   Bounds   3             -1       1                Points:           3
 RS_GRID| Real space fully replicated
 RS_GRID| Group size                                                           1

 Spin 1

 Number of electrons:                                                        175
 Number of occupied orbitals:                                                175
 Number of molecular orbitals:                                               175

 Spin 2

 Number of electrons:                                                        141
 Number of occupied orbitals:                                                141
 Number of molecular orbitals:                                               141

 Number of orbital functions:                                                441
 Number of independent orbital functions:                                    441

 Extrapolation method: initial_guess


 SCF WAVEFUNCTION OPTIMIZATION

  ----------------------------------- OT ---------------------------------------
  Minimizer      : CG                  : conjugate gradient
  Preconditioner : FULL_KINETIC        : inversion of T + eS
  Precond_solver : DEFAULT
  Line search    : 2PNT                : 2 energies, one gradient
  stepsize       :    0.15000000                  energy_gap     :    0.20000000
  eps_taylor     :   0.10000E-15                  max_taylor     :             4
  ----------------------------------- OT ---------------------------------------

  Step     Update method      Time    Convergence         Total energy    Change
  ------------------------------------------------------------------------------

 *** WARNING in dft_plus_u.F:1457 :: DFT+U energy contibution is negative ***
 *** possibly due to unphysical Mulliken charges. Check your input, if    ***
 *** this warning persists or try a different method!                     ***

     1 OT CG       0.15E+00   15.3     0.00010491     -1335.5288007261 -1.34E+03

 *** WARNING in dft_plus_u.F:1457 :: DFT+U energy contibution is negative ***
 *** possibly due to unphysical Mulliken charges. Check your input, if    ***
 *** this warning persists or try a different method!                     ***

     2 OT LS       0.60E+00    9.7                    -1335.5290128694

 *** WARNING in dft_plus_u.F:1457 :: DFT+U energy contibution is negative ***
 *** possibly due to unphysical Mulliken charges. Check your input, if    ***
 *** this warning persists or try a different method!                     ***

     3 OT CG       0.60E+00   19.1     0.00005538     -1335.5294342876 -6.34E-04

 *** WARNING in dft_plus_u.F:1457 :: DFT+U energy contibution is negative ***
 *** possibly due to unphysical Mulliken charges. Check your input, if    ***
 *** this warning persists or try a different method!                     ***

     4 OT LS       0.88E+00    9.8                    -1335.5296029451

 *** WARNING in dft_plus_u.F:1457 :: DFT+U energy contibution is negative ***
 *** possibly due to unphysical Mulliken charges. Check your input, if    ***
 *** this warning persists or try a different method!                     ***

     5 OT CG       0.88E+00   19.1     0.00006257     -1335.5296215676 -1.87E-04

 *** WARNING in dft_plus_u.F:1457 :: DFT+U energy contibution is negative ***
 *** possibly due to unphysical Mulliken charges. Check your input, if    ***
 *** this warning persists or try a different method!                     ***

     6 OT LS       0.38E+00    9.6                    -1335.5295461727

 *** WARNING in dft_plus_u.F:1457 :: DFT+U energy contibution is negative ***
 *** possibly due to unphysical Mulliken charges. Check your input, if    ***
 *** this warning persists or try a different method!                     ***

     7 OT CG       0.38E+00   19.1     0.00003558     -1335.5297248094 -1.03E-04

 *** WARNING in dft_plus_u.F:1457 :: DFT+U energy contibution is negative ***
 *** possibly due to unphysical Mulliken charges. Check your input, if    ***
 *** this warning persists or try a different method!                     ***

     8 OT LS       0.34E+00    9.6                    -1335.5297546265

 *** WARNING in dft_plus_u.F:1457 :: DFT+U energy contibution is negative ***
 *** possibly due to unphysical Mulliken charges. Check your input, if    ***
 *** this warning persists or try a different method!                     ***

     9 OT CG       0.34E+00   19.1     0.00002492     -1335.5297549725 -3.02E-05

 *** WARNING in dft_plus_u.F:1457 :: DFT+U energy contibution is negative ***
 *** possibly due to unphysical Mulliken charges. Check your input, if    ***
 *** this warning persists or try a different method!                     ***

    10 OT LS       0.45E+00    9.6                    -1335.5297733539

 *** WARNING in dft_plus_u.F:1457 :: DFT+U energy contibution is negative ***
 *** possibly due to unphysical Mulliken charges. Check your input, if    ***
 *** this warning persists or try a different method!                     ***

    11 OT CG       0.45E+00   19.1     0.00002240     -1335.5297745045 -1.95E-05

 *** WARNING in dft_plus_u.F:1457 :: DFT+U energy contibution is negative ***
 *** possibly due to unphysical Mulliken charges. Check your input, if    ***
 *** this warning persists or try a different method!                     ***

    12 OT LS       0.48E+00    9.6                    -1335.5297912610

 *** WARNING in dft_plus_u.F:1457 :: DFT+U energy contibution is negative ***
 *** possibly due to unphysical Mulliken charges. Check your input, if    ***
 *** this warning persists or try a different method!                     ***

    13 OT CG       0.48E+00   19.2     0.00001567     -1335.5297913273 -1.68E-05

 *** WARNING in dft_plus_u.F:1457 :: DFT+U energy contibution is negative ***
 *** possibly due to unphysical Mulliken charges. Check your input, if    ***
 *** this warning persists or try a different method!                     ***

    14 OT LS       0.35E+00    9.6                    -1335.5297964206

 *** WARNING in dft_plus_u.F:1457 :: DFT+U energy contibution is negative ***
 *** possibly due to unphysical Mulliken charges. Check your input, if    ***
 *** this warning persists or try a different method!                     ***

    15 OT CG       0.35E+00   19.2     0.00001156     -1335.5297972931 -5.97E-06

 *** WARNING in dft_plus_u.F:1457 :: DFT+U energy contibution is negative ***
 *** possibly due to unphysical Mulliken charges. Check your input, if    ***
 *** this warning persists or try a different method!                     ***

    16 OT LS       0.55E+00    9.6                    -1335.5298017041

 *** WARNING in dft_plus_u.F:1457 :: DFT+U energy contibution is negative ***
 *** possibly due to unphysical Mulliken charges. Check your input, if    ***
 *** this warning persists or try a different method!                     ***

    17 OT CG       0.55E+00   19.2     0.00001249     -1335.5298023663 -5.07E-06

 *** WARNING in dft_plus_u.F:1457 :: DFT+U energy contibution is negative ***
 *** possibly due to unphysical Mulliken charges. Check your input, if    ***
 *** this warning persists or try a different method!                     ***

    18 OT LS       0.67E+00    9.6                    -1335.5298093637

 *** WARNING in dft_plus_u.F:1457 :: DFT+U energy contibution is negative ***
 *** possibly due to unphysical Mulliken charges. Check your input, if    ***
 *** this warning persists or try a different method!                     ***

    19 OT CG       0.67E+00   19.2     0.00001357     -1335.5298095985 -7.23E-06

 *** WARNING in dft_plus_u.F:1457 :: DFT+U energy contibution is negative ***
 *** possibly due to unphysical Mulliken charges. Check your input, if    ***
 *** this warning persists or try a different method!                     ***

    20 OT LS       0.50E+00    9.7                    -1335.5298153661

 *** WARNING in dft_plus_u.F:1457 :: DFT+U energy contibution is negative ***
 *** possibly due to unphysical Mulliken charges. Check your input, if    ***
 *** this warning persists or try a different method!                     ***

    21 OT CG       0.50E+00   19.1     0.00001220     -1335.5298160454 -6.45E-06

 *** WARNING in dft_plus_u.F:1457 :: DFT+U energy contibution is negative ***
 *** possibly due to unphysical Mulliken charges. Check your input, if    ***
 *** this warning persists or try a different method!                     ***

    22 OT LS       0.57E+00    9.7                    -1335.5298218868

 *** WARNING in dft_plus_u.F:1457 :: DFT+U energy contibution is negative ***
 *** possibly due to unphysical Mulliken charges. Check your input, if    ***
 *** this warning persists or try a different method!                     ***

    23 OT CG       0.57E+00   19.2     0.00001294     -1335.5298219742 -5.93E-06

 *** WARNING in dft_plus_u.F:1457 :: DFT+U energy contibution is negative ***
 *** possibly due to unphysical Mulliken charges. Check your input, if    ***
 *** this warning persists or try a different method!                     ***

    24 OT LS       0.56E+00    9.6                    -1335.5298284864

 *** WARNING in dft_plus_u.F:1457 :: DFT+U energy contibution is negative ***
 *** possibly due to unphysical Mulliken charges. Check your input, if    ***
 *** this warning persists or try a different method!                     ***

    25 OT CG       0.56E+00   19.4     0.00001179     -1335.5298284902 -6.52E-06

 *** WARNING in dft_plus_u.F:1457 :: DFT+U energy contibution is negative ***
 *** possibly due to unphysical Mulliken charges. Check your input, if    ***
 *** this warning persists or try a different method!                     ***

    26 OT LS       0.44E+00    9.6                    -1335.5298323731

 *** WARNING in dft_plus_u.F:1457 :: DFT+U energy contibution is negative ***
 *** possibly due to unphysical Mulliken charges. Check your input, if    ***
 *** this warning persists or try a different method!                     ***

    27 OT CG       0.44E+00   19.2     0.00000837     -1335.5298327065 -4.22E-06

 *** WARNING in dft_plus_u.F:1457 :: DFT+U energy contibution is negative ***
 *** possibly due to unphysical Mulliken charges. Check your input, if    ***
 *** this warning persists or try a different method!                     ***

    28 OT LS       0.41E+00    9.6                    -1335.5298346915

 *** WARNING in dft_plus_u.F:1457 :: DFT+U energy contibution is negative ***
 *** possibly due to unphysical Mulliken charges. Check your input, if    ***
 *** this warning persists or try a different method!                     ***

    29 OT CG       0.41E+00   19.2     0.00000671     -1335.5298347003 -1.99E-06

 *** WARNING in dft_plus_u.F:1457 :: DFT+U energy contibution is negative ***
 *** possibly due to unphysical Mulliken charges. Check your input, if    ***
 *** this warning persists or try a different method!                     ***

    30 OT LS       0.51E+00    9.7                    -1335.5298362425

 *** WARNING in dft_plus_u.F:1457 :: DFT+U energy contibution is negative ***
 *** possibly due to unphysical Mulliken charges. Check your input, if    ***
 *** this warning persists or try a different method!                     ***

    31 OT CG       0.51E+00   19.2     0.00000585     -1335.5298363079 -1.61E-06

 *** WARNING in dft_plus_u.F:1457 :: DFT+U energy contibution is negative ***
 *** possibly due to unphysical Mulliken charges. Check your input, if    ***
 *** this warning persists or try a different method!                     ***

    32 OT LS       0.40E+00    9.7                    -1335.5298371884

 *** WARNING in dft_plus_u.F:1457 :: DFT+U energy contibution is negative ***
 *** possibly due to unphysical Mulliken charges. Check your input, if    ***
 *** this warning persists or try a different method!                     ***

    33 OT CG       0.40E+00   19.1     0.00000438     -1335.5298372620 -9.54E-07

 *** WARNING in dft_plus_u.F:1457 :: DFT+U energy contibution is negative ***
 *** possibly due to unphysical Mulliken charges. Check your input, if    ***
 *** this warning persists or try a different method!                     ***

    34 OT LS       0.46E+00    9.7                    -1335.5298378676

 *** WARNING in dft_plus_u.F:1457 :: DFT+U energy contibution is negative ***
 *** possibly due to unphysical Mulliken charges. Check your input, if    ***
 *** this warning persists or try a different method!                     ***

    35 OT CG       0.46E+00   19.2     0.00000399     -1335.5298378778 -6.16E-07

 *** WARNING in dft_plus_u.F:1457 :: DFT+U energy contibution is negative ***
 *** possibly due to unphysical Mulliken charges. Check your input, if    ***
 *** this warning persists or try a different method!                     ***

    36 OT LS       0.54E+00    9.7                    -1335.5298384667

 *** WARNING in dft_plus_u.F:1457 :: DFT+U energy contibution is negative ***
 *** possibly due to unphysical Mulliken charges. Check your input, if    ***
 *** this warning persists or try a different method!                     ***

    37 OT CG       0.54E+00   19.2     0.00000408     -1335.5298384807 -6.03E-07

 *** WARNING in dft_plus_u.F:1457 :: DFT+U energy contibution is negative ***
 *** possibly due to unphysical Mulliken charges. Check your input, if    ***
 *** this warning persists or try a different method!                     ***

    38 OT LS       0.49E+00    9.7                    -1335.5298390487

 *** WARNING in dft_plus_u.F:1457 :: DFT+U energy contibution is negative ***
 *** possibly due to unphysical Mulliken charges. Check your input, if    ***
 *** this warning persists or try a different method!                     ***

    39 OT CG       0.49E+00   19.2     0.00000373     -1335.5298390542 -5.73E-07

 *** WARNING in dft_plus_u.F:1457 :: DFT+U energy contibution is negative ***
 *** possibly due to unphysical Mulliken charges. Check your input, if    ***
 *** this warning persists or try a different method!                     ***

    40 OT LS       0.49E+00    9.7                    -1335.5298395306

 *** WARNING in dft_plus_u.F:1457 :: DFT+U energy contibution is negative ***
 *** possibly due to unphysical Mulliken charges. Check your input, if    ***
 *** this warning persists or try a different method!                     ***

    41 OT CG       0.49E+00   19.1     0.00000332     -1335.5298395306 -4.76E-07

 *** WARNING in dft_plus_u.F:1457 :: DFT+U energy contibution is negative ***
 *** possibly due to unphysical Mulliken charges. Check your input, if    ***
 *** this warning persists or try a different method!                     ***

    42 OT LS       0.54E+00    9.7                    -1335.5298399416

 *** WARNING in dft_plus_u.F:1457 :: DFT+U energy contibution is negative ***
 *** possibly due to unphysical Mulliken charges. Check your input, if    ***
 *** this warning persists or try a different method!                     ***

    43 OT CG       0.54E+00   19.1     0.00000320     -1335.5298399449 -4.14E-07

 *** WARNING in dft_plus_u.F:1457 :: DFT+U energy contibution is negative ***
 *** possibly due to unphysical Mulliken charges. Check your input, if    ***
 *** this warning persists or try a different method!                     ***

    44 OT LS       0.63E+00    9.8                    -1335.5298403875

 *** WARNING in dft_plus_u.F:1457 :: DFT+U energy contibution is negative ***
 *** possibly due to unphysical Mulliken charges. Check your input, if    ***
 *** this warning persists or try a different method!                     ***

    45 OT CG       0.63E+00   19.2     0.00000303     -1335.5298403975 -4.53E-07

 *** WARNING in dft_plus_u.F:1457 :: DFT+U energy contibution is negative ***
 *** possibly due to unphysical Mulliken charges. Check your input, if    ***
 *** this warning persists or try a different method!                     ***

    46 OT LS       0.42E+00   10.1                    -1335.5298405950

 *** WARNING in dft_plus_u.F:1457 :: DFT+U energy contibution is negative ***
 *** possibly due to unphysical Mulliken charges. Check your input, if    ***
 *** this warning persists or try a different method!                     ***

    47 OT CG       0.42E+00   19.2     0.00000253     -1335.5298406663 -2.69E-07

 *** WARNING in dft_plus_u.F:1457 :: DFT+U energy contibution is negative ***
 *** possibly due to unphysical Mulliken charges. Check your input, if    ***
 *** this warning persists or try a different method!                     ***

    48 OT LS       0.44E+00    9.7                    -1335.5298408606

 *** WARNING in dft_plus_u.F:1457 :: DFT+U energy contibution is negative ***
 *** possibly due to unphysical Mulliken charges. Check your input, if    ***
 *** this warning persists or try a different method!                     ***

    49 OT CG       0.44E+00   19.2     0.00000220     -1335.5298408609 -1.95E-07

 *** WARNING in dft_plus_u.F:1457 :: DFT+U energy contibution is negative ***
 *** possibly due to unphysical Mulliken charges. Check your input, if    ***
 *** this warning persists or try a different method!                     ***

    50 OT LS       0.50E+00    9.7                    -1335.5298410270

 *** WARNING in dft_plus_u.F:1457 :: DFT+U energy contibution is negative ***
 *** possibly due to unphysical Mulliken charges. Check your input, if    ***
 *** this warning persists or try a different method!                     ***

    51 OT CG       0.50E+00   19.1     0.00000196     -1335.5298410294 -1.69E-07

 *** WARNING in dft_plus_u.F:1457 :: DFT+U energy contibution is negative ***
 *** possibly due to unphysical Mulliken charges. Check your input, if    ***
 *** this warning persists or try a different method!                     ***

    52 OT LS       0.49E+00    9.7                    -1335.5298411597

 *** WARNING in dft_plus_u.F:1457 :: DFT+U energy contibution is negative ***
 *** possibly due to unphysical Mulliken charges. Check your input, if    ***
 *** this warning persists or try a different method!                     ***

    53 OT CG       0.49E+00   19.1     0.00000174     -1335.5298411598 -1.30E-07

 *** WARNING in dft_plus_u.F:1457 :: DFT+U energy contibution is negative ***
 *** possibly due to unphysical Mulliken charges. Check your input, if    ***
 *** this warning persists or try a different method!                     ***

    54 OT LS       0.48E+00    9.7                    -1335.5298412620

 *** WARNING in dft_plus_u.F:1457 :: DFT+U energy contibution is negative ***
 *** possibly due to unphysical Mulliken charges. Check your input, if    ***
 *** this warning persists or try a different method!                     ***

    55 OT CG       0.48E+00   19.1     0.00000164     -1335.5298412620 -1.02E-07

 *** WARNING in dft_plus_u.F:1457 :: DFT+U energy contibution is negative ***
 *** possibly due to unphysical Mulliken charges. Check your input, if    ***
 *** this warning persists or try a different method!                     ***

    56 OT LS       0.50E+00    9.7                    -1335.5298413566

 *** WARNING in dft_plus_u.F:1457 :: DFT+U energy contibution is negative ***
 *** possibly due to unphysical Mulliken charges. Check your input, if    ***
 *** this warning persists or try a different method!                     ***

    57 OT CG       0.50E+00   19.2     0.00000151     -1335.5298413567 -9.47E-08

 *** WARNING in dft_plus_u.F:1457 :: DFT+U energy contibution is negative ***
 *** possibly due to unphysical Mulliken charges. Check your input, if    ***
[...]
 flops    19 x    13 x     2             31951920     100.0%      0.0%      0.0%
 flops     2 x    13 x    19             31951920     100.0%      0.0%      0.0%
 flops     8 x    19 x    15             32175360     100.0%      0.0%      0.0%
 flops    19 x     8 x    15             32175360     100.0%      0.0%      0.0%
 flops    45 x    13 x    31             32280300     100.0%      0.0%      0.0%
 flops   112 x    13 x    31             33400640     100.0%      0.0%      0.0%
 flops    32 x    13 x    20             35543040     100.0%      0.0%      0.0%
 flops    19 x    15 x     2             36532440     100.0%      0.0%      0.0%
 flops     2 x    15 x    19             36532440     100.0%      0.0%      0.0%
 flops    45 x    32 x    13             36840960     100.0%      0.0%      0.0%
 flops    45 x    13 x    32             36840960     100.0%      0.0%      0.0%
 flops   112 x    15 x    31             38539200     100.0%      0.0%      0.0%
 flops    47 x    15 x    31             38901900     100.0%      0.0%      0.0%
 flops     8 x     8 x    13             48642048     100.0%      0.0%      0.0%
 flops    19 x    13 x    19             50590540     100.0%      0.0%      0.0%
 flops    32 x    15 x    31             52972800     100.0%      0.0%      0.0%
 flops    64 x    15 x    31             52972800     100.0%      0.0%      0.0%
 flops     8 x    13 x     2             53813760     100.0%      0.0%      0.0%
 flops     2 x    13 x     8             53813760     100.0%      0.0%      0.0%
 flops    47 x    15 x    32             55497600     100.0%      0.0%      0.0%
 flops    47 x    32 x    15             55497600     100.0%      0.0%      0.0%
 flops     8 x     8 x    15             56125440     100.0%      0.0%      0.0%
 flops    19 x    15 x    19             57843030     100.0%      0.0%      0.0%
 flops     8 x    15 x     2             61528320     100.0%      0.0%      0.0%
 flops     2 x    15 x     8             61528320     100.0%      0.0%      0.0%
 flops    32 x    13 x    31             68864640     100.0%      0.0%      0.0%
 flops    45 x    32 x    12             73820160     100.0%      0.0%      0.0%
 flops    64 x    32 x    15             75571200     100.0%      0.0%      0.0%
 flops    32 x    15 x    32             75571200     100.0%      0.0%      0.0%
 flops    32 x    32 x    15             75571200     100.0%      0.0%      0.0%
 flops    64 x    15 x    32             75571200     100.0%      0.0%      0.0%
 flops    32 x    13 x    32             78594048     100.0%      0.0%      0.0%
 flops    32 x    32 x    13             78594048     100.0%      0.0%      0.0%
 flops   107 x    32 x    12             82093824     100.0%      0.0%      0.0%
 flops   110 x    32 x    12             84395520     100.0%      0.0%      0.0%
 flops    19 x    13 x     8             85205120     100.0%      0.0%      0.0%
 flops     8 x    13 x    19             85205120     100.0%      0.0%      0.0%
 flops   107 x    32 x    13             88311808     100.0%      0.0%      0.0%
 flops   107 x    13 x    32             88311808     100.0%      0.0%      0.0%
 flops   110 x    13 x    32             90787840     100.0%      0.0%      0.0%
 flops   110 x    32 x    13             90787840     100.0%      0.0%      0.0%
 flops    47 x    32 x    12             96376320     100.0%      0.0%      0.0%
 flops    19 x    15 x     8             97419840     100.0%      0.0%      0.0%
 flops     8 x    15 x    19             97419840     100.0%      0.0%      0.0%
 flops   107 x    32 x    15            127372800     100.0%      0.0%      0.0%
 flops   107 x    15 x    32            127372800     100.0%      0.0%      0.0%
 flops   110 x    15 x    32            130944000     100.0%      0.0%      0.0%
 flops   110 x    32 x    15            130944000     100.0%      0.0%      0.0%
 flops    64 x    32 x    12            131235840     100.0%      0.0%      0.0%
 flops     8 x    13 x     8            143503360     100.0%      0.0%      0.0%
 flops     2 x     2 x    32            149796864     100.0%      0.0%      0.0%
 flops    45 x    32 x    20            164044800     100.0%      0.0%      0.0%
 flops     8 x    15 x     8            164075520     100.0%      0.0%      0.0%
 flops   112 x    32 x    12            171859968     100.0%      0.0%      0.0%
 flops   107 x    32 x    20            182430720     100.0%      0.0%      0.0%
 flops   112 x    13 x    32            184877056     100.0%      0.0%      0.0%
 flops   112 x    32 x    13            184877056     100.0%      0.0%      0.0%
 flops   110 x    32 x    20            187545600     100.0%      0.0%      0.0%
 flops    47 x    32 x    20            214169600     100.0%      0.0%      0.0%
 flops    19 x     2 x    32            231662592     100.0%      0.0%      0.0%
 flops     2 x    19 x    32            231662592     100.0%      0.0%      0.0%
 flops   112 x    15 x    32            266649600     100.0%      0.0%      0.0%
 flops   112 x    32 x    15            266649600     100.0%      0.0%      0.0%
 flops    32 x    32 x    12            288718848     100.0%      0.0%      0.0%
 flops    64 x    32 x    20            291635200     100.0%      0.0%      0.0%
 flops    45 x    32 x    31            317836800     100.0%      0.0%      0.0%
 flops   107 x    32 x    31            353459520     100.0%      0.0%      0.0%
 flops    45 x    32 x    32            362741760     100.0%      0.0%      0.0%
 flops   110 x    32 x    31            363369600     100.0%      0.0%      0.0%
 flops   112 x    32 x    20            381911040     100.0%      0.0%      0.0%
 flops     8 x     2 x    32            390168576     100.0%      0.0%      0.0%
 flops     2 x     8 x    32            390168576     100.0%      0.0%      0.0%
 flops    47 x    32 x    31            414953600     100.0%      0.0%      0.0%
 flops    19 x    19 x    32            419198976     100.0%      0.0%      0.0%
 flops     2 x    32 x     2            444810240     100.0%      0.0%      0.0%
 flops    64 x    32 x    31            565043200     100.0%      0.0%      0.0%
 flops    47 x    32 x    32            591974400     100.0%      0.0%      0.0%
 flops     8 x    19 x    32            617766912     100.0%      0.0%      0.0%
 flops    19 x     8 x    32            617766912     100.0%      0.0%      0.0%
 flops    32 x    32 x    20            641597440     100.0%      0.0%      0.0%
 flops    19 x    32 x     2            704282880     100.0%      0.0%      0.0%
 flops     2 x    32 x    19            704282880     100.0%      0.0%      0.0%
 flops   112 x    32 x    31            739952640     100.0%      0.0%      0.0%
 flops    64 x    32 x    32            806092800     100.0%      0.0%      0.0%
 flops     8 x     8 x    32           1077608448     100.0%      0.0%      0.0%
 flops    19 x    32 x    19           1115114560     100.0%      0.0%      0.0%
 flops     8 x    32 x     2           1186160640     100.0%      0.0%      0.0%
 flops     2 x    32 x     8           1186160640     100.0%      0.0%      0.0%
 flops    32 x    32 x    31           1243095040     100.0%      0.0%      0.0%
 flops    32 x    32 x    32           1579941888     100.0%      0.0%      0.0%
 flops    19 x    32 x     8           1878087680     100.0%      0.0%      0.0%
 flops     8 x    32 x    19           1878087680     100.0%      0.0%      0.0%
 flops   107 x    32 x    32           2228174848     100.0%      0.0%      0.0%
 flops   110 x    32 x    32           2290647040     100.0%      0.0%      0.0%
 flops     8 x    32 x     8           3163095040     100.0%      0.0%      0.0%
 flops   112 x    32 x    32           4664590336     100.0%      0.0%      0.0%
 flops inhomo. stacks                  7016535040     100.0%      0.0%      0.0%
 flops total                        47.734921E+09     100.0%      0.0%      0.0%
 flops max/rank                      2.513762E+09     100.0%      0.0%      0.0%
 matmuls inhomo. stacks                     75680     100.0%      0.0%      0.0%
 matmuls total                            9827475     100.0%      0.0%      0.0%
 number of processed stacks               1133713     100.0%      0.0%      0.0%
 average stack size                                     8.7       0.0       0.0
 marketing flops                    49.931805E+09
 -------------------------------------------------------------------------------
 # multiplications                           1785
 max memory usage/rank               1.474716E+09
 # max total images/rank                        5
 # max 3D layers                                1
 # MPI messages exchanged                 4498200
 MPI messages size (bytes):
  total size                        15.778972E+09
  min size                           0.000000E+00
  max size                          34.944000E+03
  average size                       3.507841E+03
 MPI breakdown and total messages size (bytes):
             size <=      128             2821383                        0
       128 < size <=     8192             1196442               6766459704
      8192 < size <=    32768              480267               9008825760
     32768 < size <=   131072                 108                  3714984
    131072 < size <=  4194304                   0                        0
   4194304 < size <= 16777216                   0                        0
  16777216 < size                               0                        0
 -------------------------------------------------------------------------------

 *** WARNING in dbcsr/mm/dbcsr_mm.F:268 :: Using a non-square number of ***
 *** MPI ranks might lead to poor performance.                          ***
 *** Used ranks: 40                                                     ***
 *** Suggested: 36 81                                                   ***

 -------------------------------------------------------------------------------

 MEMORY| Estimated peak process memory [MiB]                                1407

 -------------------------------------------------------------------------------
 ----                             MULTIGRID INFO                            ----
 -------------------------------------------------------------------------------
 count for grid        1:        1213468          cutoff [a.u.]          325.00
 count for grid        2:         509155          cutoff [a.u.]          108.33
 count for grid        3:         312734          cutoff [a.u.]           36.11
 count for grid        4:         105425          cutoff [a.u.]           12.04
 count for grid        5:           3600          cutoff [a.u.]            4.01
 count for grid        6:              0          cutoff [a.u.]            1.34
 count for grid        7:              0          cutoff [a.u.]            0.45
 count for grid        8:              0          cutoff [a.u.]            0.15
 count for grid        9:              0          cutoff [a.u.]            0.05
 count for grid       10:              0          cutoff [a.u.]            0.02
 total gridlevel count  :        2144382

 -------------------------------------------------------------------------------
 -                                                                             -
 -                         MESSAGE PASSING PERFORMANCE                         -
 -                                                                             -
 -------------------------------------------------------------------------------

 ROUTINE             CALLS      AVE VOLUME [Bytes]
 MP_Group               31
 MP_Bcast             1046                 310210.
 MP_Allreduce        10846                    506.
 MP_Sync              1306
 MP_Alltoall          8637               20492423.
 MP_ISendRecv        67392                 123959.
 MP_Wait            260540
 MP_ISend           258874                  58213.
 MP_IRecv           261228                  57441.
 MP_Recv                72                  58212.
 MP_Memory          234730
 -------------------------------------------------------------------------------


 -------------------------------------------------------------------------------
 -                                                                             -
 -                           R E F E R E N C E S                               -
 -                                                                             -
 -------------------------------------------------------------------------------
 
 CP2K version 6.1, the CP2K developers group (2018).
 CP2K is freely available from https://www.cp2k.org/ .

 Schuett, Ole; Messmer, Peter; Hutter, Juerg; VandeVondele, Joost. 
 Electronic Structure Calculations on Graphics Processing Units, John Wiley & Sons, Ltd, 173-190 (2016). 
 GPU-Accelerated Sparse Matrix-Matrix Multiplication for Linear Scaling Density Functional Theory.
 http://dx.doi.org/10.1002/9781118670712.ch8


 Borstnik, U; VandeVondele, J; Weber, V; Hutter, J. 
 PARALLEL COMPUTING, 40 (5-6), 47-58 (2014). 
 Sparse matrix multiplication: The distributed block-compressed sparse
 row library.
 http://dx.doi.org/10.1016/j.parco.2014.03.012


 Hutter, J; Iannuzzi, M; Schiffmann, F; VandeVondele, J. 
 WILEY INTERDISCIPLINARY REVIEWS-COMPUTATIONAL MOLECULAR SCIENCE, 4 (1), 15-25 (2014). 
 CP2K: atomistic simulations of condensed matter systems.
 http://dx.doi.org/10.1002/wcms.1159


 Krack, M. 
 THEORETICAL CHEMISTRY ACCOUNTS, 114 (1-3), 145-152 (2005). 
 Pseudopotentials for H to Kr optimized for gradient-corrected
 exchange-correlation functionals.
 http://dx.doi.org/10.1007/s00214-005-0655-y


 VandeVondele, J; Krack, M; Mohamed, F; Parrinello, M; Chassaing, T;
 Hutter, J. COMPUTER PHYSICS COMMUNICATIONS, 167 (2), 103-128 (2005). 
 QUICKSTEP: Fast and accurate density functional calculations using a
 mixed Gaussian and plane waves approach.
 http://dx.doi.org/10.1016/j.cpc.2004.12.014


 Frigo, M; Johnson, SG. 
 PROCEEDINGS OF THE IEEE, 93 (2), 216-231 (2005). 
 The design and implementation of FFTW3.
 http://dx.doi.org/10.1109/JPROC.2004.840301


 VandeVondele, J; Hutter, J. 
 JOURNAL OF CHEMICAL PHYSICS, 118 (10), 4365-4369 (2003). 
 An efficient orbital transformation method for electronic structure
 calculations.
 http://dx.doi.org/10.1063/1.1543154


 Hartwigsen, C; Goedecker, S; Hutter, J. 
 PHYSICAL REVIEW B, 58 (7), 3641-3662 (1998). 
 Relativistic separable dual-space Gaussian pseudopotentials from H to Rn.
 http://dx.doi.org/10.1103/PhysRevB.58.3641


 Dudarev, SL; Botton, GA; Savrasov, SY; Humphreys, CJ; Sutton, AP. 
 PHYSICAL REVIEW B, 57 (3), 1505-1509 (1998). 
 Electron-energy-loss spectra and the structural stability of
 nickel oxide: An LSDA+U study.
 http://dx.doi.org/10.1103/PhysRevB.57.1505


 Lippert, G; Hutter, J; Parrinello, M. 
 MOLECULAR PHYSICS, 92 (3), 477-487 (1997). 
 A hybrid Gaussian and plane wave density functional scheme.
 http://dx.doi.org/10.1080/002689797170220


 Dudarev, SL; Manh, DN; Sutton, AP. 
 PHILOSOPHICAL MAGAZINE B, 75 (5), 613-628 (1997). 
 Effect of Mott-Hubbard correlations on the electronic
 structure and structural stability of uranium dioxide.
 http://dx.doi.org/10.1080/13642819708202343


 Goedecker, S; Teter, M; Hutter, J. 
 PHYSICAL REVIEW B, 54 (3), 1703-1710 (1996). 
 Separable dual-space Gaussian pseudopotentials.
 http://dx.doi.org/10.1103/PhysRevB.54.1703


 BECKE, AD. PHYSICAL REVIEW A, 38 (6), 3098-3100 (1988). 
 DENSITY-FUNCTIONAL EXCHANGE-ENERGY APPROXIMATION WITH CORRECT
 ASYMPTOTIC-BEHAVIOR.
 http://dx.doi.org/10.1103/PhysRevA.38.3098


 LEE, CT; YANG, WT; PARR, RG. 
 PHYSICAL REVIEW B, 37 (2), 785-789 (1988). 
 DEVELOPMENT OF THE COLLE-SALVETTI CORRELATION-ENERGY FORMULA INTO A
 FUNCTIONAL OF THE ELECTRON-DENSITY.
 http://dx.doi.org/10.1103/PhysRevB.37.785


 -------------------------------------------------------------------------------
 -                                                                             -
 -                                T I M I N G                                  -
 -                                                                             -
 -------------------------------------------------------------------------------
 SUBROUTINE                       CALLS  ASD         SELF TIME        TOTAL TIME
                                MAXIMUM       AVERAGE  MAXIMUM  AVERAGE  MAXIMUM
 CP2K                                 1  1.0    0.019    0.029 1038.112 1038.113
 qs_energies                          1  2.0    0.000    0.000 1036.397 1036.397
 scf_env_do_scf                       1  3.0    0.000    0.000 1030.172 1030.172
 scf_env_do_scf_inner_loop           71  4.0    0.003    0.007 1014.877 1014.890
 pw_transfer                       3197  9.3    0.250    0.285  754.715  759.221
 fft_wrap_pw1pw2                   3055 10.3    0.041    0.047  748.892  753.448
 qs_ks_update_qs_env                 72  5.0    0.003    0.003  736.247  736.261
 rebuild_ks_matrix                   71  6.0    0.000    0.000  736.171  736.184
 qs_ks_build_kohn_sham_matrix        71  7.0    0.020    0.023  736.171  736.184
 fft_wrap_pw1pw2_330               1111 11.9   59.293   68.396  717.118  721.798
 fft3d_ps                          3055 12.3  321.661  331.649  587.976  598.272
 qs_vxc_create                       71  8.0    0.002    0.002  583.762  584.667
 xc_vxc_pw_create                    36  9.0    9.923   11.824  402.512  403.418
 xc_rho_set_and_dset_create          71 10.0   15.165   16.776  367.096  370.456
 qs_rho_update_rho                   72  5.0    0.001    0.001  294.682  294.690
 calculate_rho_elec                 144  6.0    7.467   25.483  294.682  294.690
 density_rs2pw                      144  7.0    0.018    0.022  274.287  279.566
 xc_exc_calc                         35  9.0    0.401    0.445  181.248  181.261
 x_to_yz                            966 14.4   81.140   84.685  172.489  179.962
 mp_alltoall_z22v                  3055 14.3  154.105  165.670  154.105  165.670
 rs_pw_transfer                    2164  9.0    0.029    0.037   96.334  100.587
 sum_up_and_integrate                36  8.0    1.377    1.447   99.283   99.286
 yz_to_x                           1009 12.6   30.851   33.742   93.588   98.393
 integrate_v_rspace                  72  9.0    1.918    6.255   97.906   97.952
 potential_pw2rs                     72 10.0    0.119    0.193   91.556   91.614
 pw_scatter_p                      1326 13.5   64.804   69.184   64.804   69.184
 pw_derive                          642 10.7   47.089   48.115   47.089   48.115
 rs_pw_transfer_RS2PW_330           146  9.0   19.036   22.560   38.214   43.783
 pw_gather_p                       1729 11.4   34.339   38.607   34.339   38.607
 mp_waitany                       19184 11.0   28.400   35.246   28.400   35.246
 pw_copy                           1502 10.8   28.924   30.027   28.924   30.027
 fft_wrap_pw1pw2_110                216 11.0    2.129    2.387   25.611   28.645
 pw_axpy                           2015  8.4   22.965   23.951   22.965   23.951
 rs_pw_transfer_PW2RS_330            74 11.9   11.947   13.156   20.980   22.396
 -------------------------------------------------------------------------------

 The number of warnings for this run is : 72
 
 -------------------------------------------------------------------------------
  **** **** ******  **  PROGRAM ENDED AT                 2019-08-08 11:51:09.426
 ***** ** ***  *** **   PROGRAM RAN ON            cpn-p28-33.cbls.ccr.buffalo.ed
 **    ****   ******    PROGRAM RAN BY                                  pavankum
 ***** **    ** ** **   PROGRAM PROCESS ID                                 64934
  **** **  *******  **  PROGRAM STOPPED IN /projects/academic/mdupuis2/pavan/VAB
                                           _calculation/results_for_paper/3.1D_F
                                           e_7units/blyp_plusU5/point_0.9
