      77
 i =        1, E =     -1335.6581353035
 Fe        18.3397513642        0.0004372835        0.0011170998
 Fe        15.2926711046       -0.0000847438        0.0000976146
 Fe        12.2198057328       -0.0002468339        0.0001957749
 Fe         9.1379031370        0.0001214872       -0.0001661037
 Fe         6.1238673270        0.0143060273        0.0001153444
 Fe         3.1098146864       -0.0006229020       -0.0000518000
 Fe         0.0245447566       -0.0003098924        0.0001461212
  O        18.3146261946        0.0320759114        2.0752677588
  O        18.3146275904       -0.0321146993       -2.0751669717
  O        19.8593035884       -1.2049207630        0.0238686613
  O        19.8591924128        1.2045533421       -0.0237648673
  O        15.2699162977        0.0320808014        2.0775203647
  O        15.2698294697       -0.0321000456       -2.0772915819
  O        16.8143881637       -1.2088966028        0.0251921449
  O        16.8143872523        1.2087944506       -0.0251593896
  O        12.2328046811        0.0291036384        2.0960265190
  O        12.2328634994       -0.0295202196       -2.0958095434
  O        13.7691086761       -1.2048059798        0.0239231050
  O        13.7692373474        1.2044841782       -0.0237255803
  O         9.2300641118       -0.0294742507        2.1151995022
  O         9.2301412387        0.0286290401       -2.1152346598
  O        10.7297299996       -1.2033518823       -0.0010309065
  O        10.7307716090        1.2029420902        0.0013130140
  O         6.1263945237        0.0247470579        2.1700344968
  O         6.1265598599        0.0348589726       -2.1703811411
  O         7.7590023798       -1.2551767333       -0.0243846876
  O         7.7689435261        1.2629755943        0.0250859927
  O         3.0154967783       -0.0302200122        2.1126007241
  O         3.0155372388        0.0291818458       -2.1126143395
  O         4.4884625973       -1.2552046306       -0.0243920309
  O         4.4783996891        1.2630767540        0.0251171796
  O        -0.0236238067        0.0276387910        2.0960113218
  O        -0.0234303070       -0.0281596159       -2.0958636141
  O         1.5147009652       -1.2020665938       -0.0080160311
  O         1.5135096766        1.2016562675        0.0082002038
  H        18.3866342462       -0.8480024260       -2.6356567605
  H        18.3693819441        0.7760575171       -2.6486389846
  H        18.3679336543       -0.7759654085        2.6490545656
  H        18.3880227803        0.8480797689        2.6354799917
  H        19.8702123425       -2.1967077496        0.0274293916
  H        19.8703931854        2.1963662483       -0.0275823714
  H        15.1732413744       -0.8481318596       -2.6338042393
  H        15.1840224253        0.7756899188       -2.6474017671
  H        15.1859444817       -0.7755485608        2.6481078540
  H        15.1722575514        0.8482652088        2.6336450500
  H        16.8132878177       -2.2007669201        0.0291696870
  H        16.8132845783        2.2006959140       -0.0291871971
  H        12.0079833297       -0.8429065566       -2.6189643713
  H        12.0426710541        0.7769326901       -2.6429750226
  H        12.0504260419       -0.7786390599        2.6439618648
  H        12.0008913581        0.8407965642        2.6187303367
  H        13.7565690825       -2.1965909272        0.0283094346
  H        13.7563970338        2.1962511234       -0.0279318175
  H         8.9991777501       -0.7738925905       -2.6520503889
  H         9.0252653270        0.8493268673       -2.6349909043
  H         9.0357432490       -0.8521790627        2.6359818376
  H         8.9885389449        0.7706426046        2.6507708126
  H        10.6956293808       -2.1938482108        0.0014217309
  H        10.6972199538        2.1934224398       -0.0009639822
  H         6.1098088923       -0.7786905261       -2.7375181136
  H         6.1100400408        0.8470429792       -2.7395898573
  H         6.1095694787       -0.7789936217        2.7509305157
  H         6.1095913605        0.8467390215        2.7248612832
  H         7.7301816181       -2.2437394404       -0.0290373958
  H         7.7508189955        2.2519448149        0.0282665867
  H         3.2138855542       -0.7753078124       -2.6588511992
  H         3.1901714894        0.8499278932       -2.6425762396
  H         3.1809662817       -0.8525536226        2.6432193225
  H         3.2225473295        0.7723922161        2.6581635179
  H         4.5170898297       -2.2438050396       -0.0289388824
  H         4.4964983184        2.2519850740        0.0282481344
  H         0.1758793088       -0.8418272882       -2.6287545336
  H         0.1314114395        0.7793284882       -2.6524932565
  H         0.1248289132       -0.7807583853        2.6530760264
  H         0.1811415359        0.8400413530        2.6287503109
  H         1.5479489843       -2.1926514148       -0.0041049586
  H         1.5461934296        2.1921872166        0.0044822385
      77
 i =        2, E =     -1335.6583576724
 Fe        18.3400824026       -0.0011915412       -0.0029896488
 Fe        15.2912459027        0.0001622745       -0.0002588576
 Fe        12.2200088154       -0.0002561413        0.0001909288
 Fe         9.1403657884       -0.0006612328        0.0004396152
 Fe         6.1238621534        0.0143598057        0.0001578218
 Fe         3.1075290638        0.0014219561        0.0001734477
 Fe         0.0243655188       -0.0002948780        0.0001055972
  O        18.3148632422        0.0321017191        2.0729744303
  O        18.3148506256       -0.0320920817       -2.0726897726
  O        19.8593044034       -1.2018294476        0.0236572950
  O        19.8591985778        1.2015614071       -0.0234435907
  O        15.2697191238        0.0320808420        2.0752403356
  O        15.2696094944       -0.0321010215       -2.0749843741
  O        16.8143486434       -1.2056745530        0.0249842472
  O        16.8143330658        1.2056491394       -0.0248312032
  O        12.2323356247        0.0291180993        2.0940917958
  O        12.2323859162       -0.0295265089       -2.0938719902
  O        13.7689867011       -1.2017586767        0.0236752104
  O        13.7691284874        1.2014363233       -0.0234606611
  O         9.2295895779       -0.0294343832        2.1132566519
  O         9.2296587239        0.0285963053       -2.1132995762
  O        10.7298347023       -1.2006098686       -0.0010164221
  O        10.7309148444        1.2002747201        0.0012735138
  O         6.1263786697        0.0247303519        2.1687379839
  O         6.1265499587        0.0348637456       -2.1689995746
  O         7.7601133570       -1.2524622349       -0.0243471257
  O         7.7701934980        1.2604481595        0.0248522678
  O         3.0159014626       -0.0302462172        2.1107344730
  O         3.0159509159        0.0291361173       -2.1107477683
  O         4.4874133376       -1.2526279919       -0.0243560844
  O         4.4771108381        1.2604136963        0.0248920606
  O        -0.0231711107        0.0276514367        2.0940861786
  O        -0.0229534607       -0.0281665857       -2.0939246935
  O         1.5144867602       -1.1994666372       -0.0079292326
  O         1.5132557902        1.1990133887        0.0081134449
  H        18.3865983735       -0.8475119953       -2.6349198980
  H        18.3691372486        0.7754006124       -2.6481090558
  H        18.3676566584       -0.7753018817        2.6485127210
  H        18.3880054476        0.8475610354        2.6347386779
  H        19.8702179476       -2.1930993283        0.0275661114
  H        19.8704157970        2.1927390392       -0.0277324118
  H        15.1732280376       -0.8476247130       -2.6331190920
  H        15.1841066125        0.7750396418       -2.6469059322
  H        15.1860531664       -0.7749039256        2.6476221434
  H        15.1721918641        0.8477597096        2.6329592716
  H        16.8132884429       -2.1970851623        0.0293127126
  H        16.8132660624        2.1970000196       -0.0293496132
  H        12.0081055585       -0.8424095175       -2.6184052642
  H        12.0431681903        0.7764063799       -2.6425491905
  H        12.0509833406       -0.7781001635        2.6435507293
  H        12.0009349416        0.8402998081        2.6181365205
  H        13.7565599089       -2.1929829696        0.0284503388
  H        13.7563920149        2.1926427358       -0.0280785351
  H         8.9989800278       -0.7734059393       -2.6513759822
  H         9.0254818187        0.8489499985       -2.6342849748
  H         9.0360016496       -0.8518260237        2.6352653640
  H         8.9882621054        0.7701194465        2.6501100700
  H        10.6956299761       -2.1902135404        0.0014056803
  H        10.6972267511        2.1897808016       -0.0009435349
  H         6.1097337708       -0.7782480508       -2.7371316280
  H         6.1099720192        0.8466906092       -2.7390950686
  H         6.1095052773       -0.7785705682        2.7505540346
  H         6.1095134682        0.8463358421        2.7244712702
  H         7.7301257708       -2.2399916148       -0.0290834480
  H         7.7506774034        2.2481649214        0.0283822673
  H         3.2139225010       -0.7748099149       -2.6582500366
  H         3.1898806956        0.8495463535       -2.6419450124
  H         3.1806479105       -0.8521771168        2.6425927388
  H         3.2226464721        0.7718826046        2.6575594793
  H         4.5171340941       -2.2400390422       -0.0289828750
  H         4.4965820903        2.2482299814        0.0283547711
  H         0.1758736633       -0.8413184753       -2.6281729375
  H         0.1308712693        0.7787959898       -2.6520778478
  H         0.1242524669       -0.7802153723        2.6526767051
  H         0.1812156275        0.8395387292        2.6281440355
  H         1.5479298335       -2.1890176925       -0.0042138564
  H         1.5461971275        2.1885564707        0.0045915826
      77
 i =        3, E =     -1335.6586746555
 Fe        18.3398897630       -0.0000394317       -0.0002160855
 Fe        15.2931287395        0.0000492808        0.0001657035
 Fe        12.2203753901       -0.0002405264        0.0001890217
 Fe         9.1388683564       -0.0001085192        0.0000950968
 Fe         6.1238668853        0.0143997300        0.0002062307
 Fe         3.1085666855       -0.0001258252        0.0000471598
 Fe         0.0239119917       -0.0002933906        0.0001399840
  O        18.3153109617        0.0320821765        2.0698525415
  O        18.3153067749       -0.0321191372       -2.0696872484
  O        19.8593656665       -1.1986208992        0.0231563260
  O        19.8592454800        1.1982886423       -0.0230483922
  O        15.2691979141        0.0320802174        2.0723001921
  O        15.2691142952       -0.0321092569       -2.0720588971
  O        16.8141796839       -1.2021775763        0.0244696532
  O        16.8141683634        1.2020769355       -0.0244241207
  O        12.2313843310        0.0291493466        2.0917793949
  O        12.2314411352       -0.0295551783       -2.0915626060
  O        13.7686723888       -1.1985401506        0.0232368491
  O        13.7688277378        1.1982298930       -0.0230410034
  O         9.2287286814       -0.0294118208        2.1109088453
  O         9.2288041034        0.0285251733       -2.1109313965
  O        10.7300893311       -1.1978567657       -0.0009658935
  O        10.7312497788        1.1975372569        0.0012149399
  O         6.1263463200        0.0247310198        2.1672357582
  O         6.1265196956        0.0348859107       -2.1673784684
  O         7.7615309260       -1.2494198411       -0.0244123599
  O         7.7720900093        1.2576037624        0.0245281773
  O         3.0166316664       -0.0302258567        2.1085420232
  O         3.0166765044        0.0291464552       -2.1085483458
  O         4.4859833049       -1.2494704905       -0.0244308771
  O         4.4752822317        1.2577119762        0.0245720389
  O        -0.0223058987        0.0276996873        2.0918027758
  O        -0.0221153055       -0.0282031196       -2.0916504873
  O         1.5140680189       -1.1966961541       -0.0077551432
  O         1.5128100770        1.1964045012        0.0079309249
  H        18.3864905309       -0.8464665694       -2.6332671284
  H        18.3686826028        0.7741008641       -2.6467792750
  H        18.3671566210       -0.7739837534        2.6471952702
  H        18.3879409924        0.8465156229        2.6330703945
  H        19.8702488594       -2.1865448287        0.0278164796
  H        19.8704274817        2.1861861488       -0.0279510550
  H        15.1732559321       -0.8465862547       -2.6315676780
  H        15.1843020560        0.7737623266       -2.6456700067
  H        15.1863144054       -0.7736271276        2.6463996318
  H        15.1721661076        0.8467195503        2.6314048593
  H        16.8132671892       -2.1903605892        0.0295743764
  H        16.8132586992        2.1902750756       -0.0295848447
  H        12.0083844598       -0.8414875659       -2.6172064025
  H        12.0440760315        0.7754216385       -2.6415570200
  H        12.0520061423       -0.7770925324        2.6425892890
  H        12.0010894444        0.8393859979        2.6168829112
  H        13.7565454650       -2.1864416368        0.0286863513
  H        13.7563815174        2.1861037397       -0.0283124283
  H         8.9987126083       -0.7724862411       -2.6499931367
  H         9.0259105510        0.8482009998       -2.6328281166
  H         9.0365083653       -0.8511072056        2.6338095984
  H         8.9878685787        0.7691510863        2.6487406652
  H        10.6956436598       -2.1838020316        0.0013749559
  H        10.6972305407        2.1833891173       -0.0009111604
  H         6.1096095397       -0.7774225328       -2.7362541470
  H         6.1098692688        0.8460105304       -2.7380375929
  H         6.1093958864       -0.7778008862        2.7497038588
  H         6.1093902460        0.8455854301        2.7236124598
  H         7.7300513510       -2.2334575699       -0.0291628785
  H         7.7504939809        2.2416802290        0.0285687589
  H         3.2139298340       -0.7738836850       -2.6569557595
  H         3.1893294972        0.8487628251       -2.6406267795
  H         3.1800499537       -0.8514352822        2.6412520089
  H         3.2227419677        0.7709015369        2.6562949956
  H         4.5171425981       -2.2335396636       -0.0290559783
  H         4.4967175729        2.2417354813        0.0285289352
  H         0.1758103515       -0.8403674497       -2.6269162153
  H         0.1298996874        0.7777839402       -2.6510829250
  H         0.1232009096       -0.7791800555        2.6517059289
  H         0.1812457830        0.8385941227        2.6268505081
  H         1.5479198802       -2.1826607173       -0.0043941650
  H         1.5461677555        2.1822076453        0.0047783757
      77
 i =        4, E =     -1335.6586957858
 Fe        18.3400577581        0.0000883662        0.0002599901
 Fe        15.2915315601       -0.0000037494        0.0000682118
 Fe        12.2203714781       -0.0002391662        0.0001826999
 Fe         9.1385200091       -0.0000363139       -0.0000872318
 Fe         6.1238686385        0.0144107286        0.0001977951
 Fe         3.1093590310       -0.0001481952       -0.0000374895
 Fe         0.0239050907       -0.0002862853        0.0001408247
  O        18.3154104044        0.0320774221        2.0697725042
  O        18.3154111382       -0.0321152697       -2.0696434400
  O        19.8593370149       -1.1982711306        0.0230768785
  O        19.8592107025        1.1979331961       -0.0229899616
  O        15.2690666952        0.0320750248        2.0722595471
  O        15.2689881045       -0.0321002413       -2.0720069024
  O        16.8141809438       -1.2019278540        0.0243822232
  O        16.8141765303        1.2018315922       -0.0243490851
  O        12.2311714551        0.0291561066        2.0918843296
  O        12.2312275972       -0.0295603618       -2.0916657734
  O        13.7686980617       -1.1981547481        0.0231741556
  O        13.7688553270        1.1978495310       -0.0229739140
  O         9.2285548446       -0.0294156769        2.1109927799
  O         9.2286385825        0.0285227129       -2.1110128972
  O        10.7301118818       -1.1974391312       -0.0009489167
  O        10.7312849306        1.1971163154        0.0012038777
  O         6.1263339754        0.0247451909        2.1673173143
  O         6.1265072398        0.0348882471       -2.1674525767
  O         7.7612739855       -1.2489846212       -0.0245725642
  O         7.7720810398        1.2572664595        0.0245541201
  O         3.0167619264       -0.0302360925        2.1086616755
  O         3.0167991166        0.0291451302       -2.1086685872
  O         4.4862048309       -1.2490176510       -0.0245960236
  O         4.4752587211        1.2573401591        0.0245951898
  O        -0.0221900442        0.0277271537        2.0919225617
  O        -0.0220005368       -0.0282289799       -2.0917660156
  O         1.5140223865       -1.1962992600       -0.0077111873
  O         1.5127472674        1.1959919718        0.0078939224
  H        18.3864531669       -0.8463027670       -2.6326876420
  H        18.3685719544        0.7738792046       -2.6462674426
  H        18.3670378275       -0.7737724442        2.6466932029
  H        18.3879141232        0.8463609291        2.6324948879
  H        19.8702720319       -2.1860602230        0.0278637720
  H        19.8704493802        2.1857046946       -0.0279940214
  H        15.1732836457       -0.8464347359       -2.6310214386
  H        15.1843655855        0.7735551292       -2.6451887127
  H        15.1863913509       -0.7734204988        2.6459209016
  H        15.1721816809        0.8465655276        2.6308577034
  H        16.8132591563       -2.1897834981        0.0296221570
  H        16.8132526147        2.1896926888       -0.0296305535
  H        12.0084498037       -0.8414390111       -2.6168637290
  H        12.0442811852        0.7753362269       -2.6412450086
  H        12.0522358218       -0.7770032797        2.6422847757
  H        12.0011264966        0.8393415092        2.6165311333
  H        13.7565189052       -2.1859628546        0.0287310440
  H        13.7563544315        2.1856291591       -0.0283587907
  H         8.9986827446       -0.7724082556       -2.6496262186
  H         9.0260306628        0.8481368752       -2.6324323068
  H         9.0366472731       -0.8510525326        2.6334181284
  H         8.9878143936        0.7690598527        2.6483750414
  H        10.6956125699       -2.1835286567        0.0013698953
  H        10.6971975855        2.1831355025       -0.0009078797
  H         6.1095880688       -0.7773337850       -2.7359808642
  H         6.1098515738        0.8459558926       -2.7377299738
  H         6.1093774401       -0.7777369692        2.7494425512
  H         6.1093678425        0.8455241361        2.7233573735
  H         7.7300215289       -2.2331309865       -0.0291861261
  H         7.7504615786        2.2414597687        0.0286057298
  H         3.2139117738       -0.7738009667       -2.6566051134
  H         3.1891913534        0.8487015050       -2.6402577209
  H         3.1798981442       -0.8513777863        2.6408819324
  H         3.2227421013        0.7708110451        2.6559481359
  H         4.5171638193       -2.2332131980       -0.0290774103
  H         4.4967400849        2.2415349020        0.0285632472
  H         0.1757862448       -0.8403070226       -2.6265537165
  H         0.1296799280        0.7776804516       -2.6507543368
  H         0.1229626479       -0.7790693672        2.6513813772
  H         0.1812440635        0.8385373523        2.6264816463
  H         1.5479467785       -2.1824079050       -0.0044262728
  H         1.5461968044        2.1819953321        0.0048098049
      77
 i =        5, E =     -1335.6587264499
 Fe        18.3397553977       -0.0000197620        0.0001262372
 Fe        15.2923222461       -0.0000681335       -0.0003039797
 Fe        12.2201840421       -0.0002371673        0.0001709387
 Fe         9.1388054524       -0.0001255945       -0.0000472707
 Fe         6.1238926421        0.0144444414        0.0001595056
 Fe         3.1090585263        0.0000548583       -0.0000303672
 Fe         0.0239593657       -0.0002716770        0.0001244900
  O        18.3156467523        0.0320754362        2.0697305949
  O        18.3156539776       -0.0321008275       -2.0696226807
  O        19.8592629734       -1.1976368150        0.0229209081
  O        19.8591301334        1.1973174691       -0.0228414464
  O        15.2687210114        0.0320628446        2.0722717043
  O        15.2686444355       -0.0320818578       -2.0719901481
  O        16.8141042759       -1.2014230841        0.0241947281
  O        16.8141072251        1.2013574301       -0.0241483890
  O        12.2307124431        0.0291813930        2.0923152136
  O        12.2307638867       -0.0295802957       -2.0920929081
  O        13.7686972048       -1.1975200030        0.0230382628
  O        13.7688620814        1.1972213531       -0.0228258211
  O         9.2282009010       -0.0294213969        2.1113605970
  O         9.2283095944        0.0285167431       -2.1113932745
  O        10.7301152493       -1.1966975335       -0.0009066586
  O        10.7313228251        1.1963860150        0.0011682652
  O         6.1263028889        0.0247851431        2.1676237240
  O         6.1264778868        0.0349023397       -2.1677423157
  O         7.7601585806       -1.2481604656       -0.0250987893
  O         7.7716895141        1.2568199078        0.0246952663
  O         3.0170222601       -0.0302646502        2.1091157280
  O         3.0170349112        0.0291352554       -2.1091339968
  O         4.4872733211       -1.2482329088       -0.0251358093
  O         4.4755868182        1.2568402193        0.0247328572
  O        -0.0220219381        0.0278140554        2.0924146189
  O        -0.0218223391       -0.0283077577       -2.0922410517
  O         1.5140214050       -1.1956213435       -0.0075940038
  O         1.5127011426        1.1952787815        0.0078009385
  H        18.3863637738       -0.8460968135       -2.6311408607
  H        18.3682855700        0.7735243303       -2.6449119052
  H        18.3667273799       -0.7734422918        2.6453570242
  H        18.3878498919        0.8461723698        2.6309584292
  H        19.8703416440       -2.1855102318        0.0279798299
  H        19.8705207584        2.1851607676       -0.0281058409
  H        15.1733632550       -0.8462564710       -2.6295687223
  H        15.1845408601        0.7732376045       -2.6439182073
  H        15.1865975273       -0.7731047365        2.6446584618
  H        15.1722230992        0.8463836938        2.6294046363
  H        16.8132377604       -2.1890747020        0.0297386755
  H        16.8132305728        2.1889726749       -0.0297483033
  H        12.0085774286       -0.8415453500       -2.6160212792
  H        12.0447842495        0.7753406915       -2.6404881558
  H        12.0528037698       -0.7769980910        2.6415480751
  H        12.0011758124        0.8394585193        2.6156655853
  H        13.7564311767       -2.1854047119        0.0288438904
  H        13.7562657240        2.1850848041       -0.0284769482
  H         8.9985748683       -0.7724121461       -2.6487309431
  H         9.0263230770        0.8481745059       -2.6314573191
  H         9.0369922004       -0.8511169779        2.6324552460
  H         8.9876408562        0.7690266372        2.6474826694
  H        10.6955083456       -2.1835082462        0.0013583420
  H        10.6970903798        2.1831644592       -0.0009006015
  H         6.1095305610       -0.7772680658       -2.7352969508
  H         6.1098035495        0.8459792404       -2.7369607784
  H         6.1093291611       -0.7777314363        2.7487884685
  H         6.1093081675        0.8455318924        2.7227265679
  H         7.7299238856       -2.2329705684       -0.0292549167
  H         7.7503782931        2.2416379198        0.0287023968
  H         3.2138880627       -0.7737975187       -2.6557608775
  H         3.1888438953        0.8487523379       -2.6393528613
  H         3.1795118338       -0.8514392786        2.6399799430
  H         3.2227675411        0.7707860935        2.6551087232
  H         4.5172436445       -2.2330307894       -0.0291416130
  H         4.4967955921        2.2417423965        0.0286522498
  H         0.1757548094       -0.8403841834       -2.6256548271
  H         0.1291238839        0.7776234067       -2.6499363375
  H         0.1223601202       -0.7789947299        2.6505745637
  H         0.1812786442        0.8386253389        2.6255672189
  H         1.5480304387       -2.1824467660       -0.0045060839
  H         1.5462909387        2.1821334476        0.0048858626
      77
 i =        6, E =     -1335.6587547157
 Fe        18.3408272712       -0.0000325558       -0.0003827303
 Fe        15.2931133277        0.0002339985        0.0009668478
 Fe        12.2200484202       -0.0002191008        0.0001737455
 Fe         9.1384177624        0.0000102554        0.0002063425
 Fe         6.1239289551        0.0145220083        0.0000643574
 Fe         3.1085380627       -0.0005597590        0.0001021584
 Fe         0.0239242528       -0.0002687766        0.0001036464
  O        18.3158107604        0.0320805293        2.0685390508
  O        18.3158085522       -0.0321161565       -2.0683895516
  O        19.8591673692       -1.1972290165        0.0227512434
  O        19.8590254619        1.1969241540       -0.0226576287
  O        15.2684577660        0.0320627422        2.0711310676
  O        15.2683729966       -0.0320975668       -2.0708936044
  O        16.8140119193       -1.2008909975        0.0239433682
  O        16.8140216158        1.2007974578       -0.0239098877
  O        12.2304241062        0.0292527794        2.0920253207
  O        12.2304814866       -0.0296459536       -2.0918038315
  O        13.7686967293       -1.1971239751        0.0228490239
  O        13.7688764005        1.1968179343       -0.0226833956
  O         9.2281030536       -0.0294069241        2.1109875504
  O         9.2282678901        0.0284572284       -2.1110473018
  O        10.7299929937       -1.1969590160       -0.0008408584
  O        10.7312653740        1.1966942416        0.0011113121
  O         6.1262789525        0.0248177326        2.1674111823
  O         6.1264578329        0.0349635753       -2.1674620382
  O         7.7584304906       -1.2477521438       -0.0258437336
  O         7.7709419566        1.2571783768        0.0249539454
  O         3.0170352836       -0.0302597341        2.1088188577
  O         3.0169935983        0.0291197397       -2.1088607157
  O         4.4889535345       -1.2478243465       -0.0258962319
  O         4.4762996150        1.2573021657        0.0249953252
  O        -0.0221306036        0.0279585710        2.0921917839
  O        -0.0219148198       -0.0284288633       -2.0920076844
  O         1.5141652611       -1.1959127738       -0.0074261431
  O         1.5127810193        1.1957056779        0.0076743257
  H        18.3863176508       -0.8465661982       -2.6293899924
  H        18.3679185584        0.7738025191       -2.6435009586
  H        18.3663131511       -0.7737145138        2.6439464587
  H        18.3878352563        0.8466469967        2.6292036926
  H        19.8704513950       -2.1850857361        0.0281477909
  H        19.8706291796        2.1847527724       -0.0282715659
  H        15.1733854119       -0.8467211085       -2.6279261943
  H        15.1847158059        0.7735310090       -2.6426027754
  H        15.1868185284       -0.7733983502        2.6433594509
  H        15.1721798510        0.8468558461        2.6277652437
  H        16.8132047706       -2.1887300509        0.0299121925
  H        16.8131940362        2.1886478548       -0.0299177074
  H        12.0085653561       -0.8422234367       -2.6152418916
  H        12.0453586071        0.7759156080       -2.6398960646
  H        12.0534907001       -0.7775562937        2.6409892787
  H        12.0010434873        0.8401476011        2.6148477078
  H        13.7562915612       -2.1849594064        0.0290151511
  H        13.7561284964        2.1846540834       -0.0286448232
  H         8.9981972171       -0.7729230920       -2.6478749851
  H         9.0265754612        0.8487952488       -2.6304986824
  H         9.0373421305       -0.8517690201        2.6315190162
  H         8.9871574334        0.7694843644        2.6466260405
  H        10.6953685959       -2.1832675892        0.0013394231
  H        10.6969404934        2.1829545341       -0.0008882990
  H         6.1094301656       -0.7776016895       -2.7346474015
  H         6.1097198648        0.8464426778       -2.7362021997
  H         6.1092448634       -0.7781019924        2.7481652203
  H         6.1092070466        0.8459514293        2.7221413445
  H         7.7297277406       -2.2326053694       -0.0293736129
  H         7.7502549427        2.2418266134        0.0288510658
  H         3.2140450959       -0.7743328204       -2.6550153589
  H         3.1884750528        0.8493808670       -2.6385111518
  H         3.1790743791       -0.8521049108        2.6391534220
  H         3.2229985756        0.7712663563        2.6543607965
  H         4.5174042763       -2.2326704125       -0.0292540962
  H         4.4968811930        2.2418827071        0.0287881984
  H         0.1758907849       -0.8410638462       -2.6248164210