 DBCSR| Multiplication driver                                               BLAS
 DBCSR| Multrec recursion limit                                              512
 DBCSR| Multiplication stack size                                           1000
 DBCSR| Maximum elements for images                                    UNLIMITED
 DBCSR| Multiplicative factor virtual images                                   1
 DBCSR| Multiplication size stacks                                             3
 DBCSR| Number of 3D layers                                               SINGLE
 DBCSR| Use MPI memory allocation                                              T
 DBCSR| Use RMA algorithm                                                      F
 DBCSR| Use Communication thread                                               T
 DBCSR| Communication thread load                                             87


  **** **** ******  **  PROGRAM STARTED AT               2019-08-02 13:29:40.557
 ***** ** ***  *** **   PROGRAM STARTED ON        cpn-p28-06.cbls.ccr.buffalo.ed
 **    ****   ******    PROGRAM STARTED BY                              pavankum
 ***** **    ** ** **   PROGRAM PROCESS ID                                 23621
  **** **  *******  **  PROGRAM STARTED IN /projects/academic/mdupuis2/pavan/VAB
                                           _calculation/results_for_paper/7.TiO2
                                           _pbe_plus_U10/point_0.7

 CP2K| version string:                                          CP2K version 6.1
 CP2K| source code revision number:                                    svn:18464
 CP2K| cp2kflags: libint fftw3 libxc parallel mpi3 scalapack libderiv_max_am1=5 
 CP2K|            libint_max_am=6
 CP2K| is freely available from                            https://www.cp2k.org/
 CP2K| Program compiled at                          Fri Nov 30 14:17:09 EST 2018
 CP2K| Program compiled on                       srv-p22-12.cbls.ccr.buffalo.edu
 CP2K| Program compiled for                                                local
 CP2K| Data directory path    /projects/academic/mdupuis2/pavan/cp2k/cp2k-6.1/da
 CP2K| Input file name                                                 input.inp

 GLOBAL| Force Environment number                                              1
 GLOBAL| Basis set file name            /projects/academic/mdupuis2/pavan/BASIS_
 GLOBAL| Potential file name            /projects/academic/mdupuis2/pavan/POTENT
 GLOBAL| MM Potential file name                                     MM_POTENTIAL
 GLOBAL| Coordinate file name                           ./intermediate_point.xyz
 GLOBAL| Method name                                                        CP2K
 GLOBAL| Project name                                                    p_tio2_
 GLOBAL| Preferred FFT library                                             FFTW3
 GLOBAL| Preferred diagonalization lib.                                       SL
 GLOBAL| Run type                                                         ENERGY
 GLOBAL| All-to-all communication in single precision                          F
 GLOBAL| FFTs using library dependent lengths                                  T
 GLOBAL| Global print level                                               MEDIUM
 GLOBAL| Total number of message passing processes                            40
 GLOBAL| Number of threads for this process                                    1
 GLOBAL| This output is from process                                           0
 GLOBAL| CPU model name :  Intel(R) Xeon(R) CPU E5-2650 v4 @ 2.20GHz

 MEMORY| system memory details [Kb]
 MEMORY|                        rank 0           min           max       average
 MEMORY| MemTotal            131746140     131740876     131746140     131743508
 MEMORY| MemFree             118966616     118966616     124774020     121870318
 MEMORY| Buffers                496684        495952        496684        496318
 MEMORY| Cached                7839544       2224612       7839544       5032078
 MEMORY| Slab                   352804        352804        413380        383092
 MEMORY| SReclaimable           236304        233400        236304        234852
 MEMORY| MemLikelyFree       127539148     127539148     127727984     127633566


 *** Fundamental physical constants (SI units) ***

 *** Literature: B. J. Mohr and B. N. Taylor,
 ***             CODATA recommended values of the fundamental physical
 ***             constants: 2006, Web Version 5.1
 ***             http://physics.nist.gov/constants

 Speed of light in vacuum [m/s]                             2.99792458000000E+08
 Magnetic constant or permeability of vacuum [N/A**2]       1.25663706143592E-06
 Electric constant or permittivity of vacuum [F/m]          8.85418781762039E-12
 Planck constant (h) [J*s]                                  6.62606896000000E-34
 Planck constant (h-bar) [J*s]                              1.05457162825177E-34
 Elementary charge [C]                                      1.60217648700000E-19
 Electron mass [kg]                                         9.10938215000000E-31
 Electron g factor [ ]                                     -2.00231930436220E+00
 Proton mass [kg]                                           1.67262163700000E-27
 Fine-structure constant                                    7.29735253760000E-03
 Rydberg constant [1/m]                                     1.09737315685270E+07
 Avogadro constant [1/mol]                                  6.02214179000000E+23
 Boltzmann constant [J/K]                                   1.38065040000000E-23
 Atomic mass unit [kg]                                      1.66053878200000E-27
 Bohr radius [m]                                            5.29177208590000E-11

 *** Conversion factors ***

 [u] -> [a.u.]                                              1.82288848426455E+03
 [Angstrom] -> [Bohr] = [a.u.]                              1.88972613288564E+00
 [a.u.] = [Bohr] -> [Angstrom]                              5.29177208590000E-01
 [a.u.] -> [s]                                              2.41888432650478E-17
 [a.u.] -> [fs]                                             2.41888432650478E-02
 [a.u.] -> [J]                                              4.35974393937059E-18
 [a.u.] -> [N]                                              8.23872205491840E-08
 [a.u.] -> [K]                                              3.15774647902944E+05
 [a.u.] -> [kJ/mol]                                         2.62549961709828E+03
 [a.u.] -> [kcal/mol]                                       6.27509468713739E+02
 [a.u.] -> [Pa]                                             2.94210107994716E+13
 [a.u.] -> [bar]                                            2.94210107994716E+08
 [a.u.] -> [atm]                                            2.90362800883016E+08
 [a.u.] -> [eV]                                             2.72113838565563E+01
 [a.u.] -> [Hz]                                             6.57968392072181E+15
 [a.u.] -> [1/cm] (wave numbers)                            2.19474631370540E+05
 [a.u./Bohr**2] -> [1/cm]                                   5.14048714338585E+03
 

 CELL_TOP| Volume [angstrom^3]:                                         2867.349
 CELL_TOP| Vector a [angstrom    13.869     0.000     0.000    |a| =      13.869
 CELL_TOP| Vector b [angstrom     0.000    13.869     0.000    |b| =      13.869
 CELL_TOP| Vector c [angstrom     0.000     0.000    14.907    |c| =      14.907
 CELL_TOP| Angle (b,c), alpha [degree]:                                   90.000
 CELL_TOP| Angle (a,c), beta  [degree]:                                   90.000
 CELL_TOP| Angle (a,b), gamma [degree]:                                   90.000
 CELL_TOP| Numerically orthorhombic:                                         YES

 CELL| Volume [angstrom^3]:                                             2867.349
 CELL| Vector a [angstrom]:      13.869     0.000     0.000    |a| =      13.869
 CELL| Vector b [angstrom]:       0.000    13.869     0.000    |b| =      13.869
 CELL| Vector c [angstrom]:       0.000     0.000    14.907    |c| =      14.907
 CELL| Angle (b,c), alpha [degree]:                                       90.000
 CELL| Angle (a,c), beta  [degree]:                                       90.000
 CELL| Angle (a,b), gamma [degree]:                                       90.000
 CELL| Numerically orthorhombic:                                             YES

 CELL_REF| Volume [angstrom^3]:                                         2867.349
 CELL_REF| Vector a [angstrom    13.869     0.000     0.000    |a| =      13.869
 CELL_REF| Vector b [angstrom     0.000    13.869     0.000    |b| =      13.869
 CELL_REF| Vector c [angstrom     0.000     0.000    14.907    |c| =      14.907
 CELL_REF| Angle (b,c), alpha [degree]:                                   90.000
 CELL_REF| Angle (a,c), beta  [degree]:                                   90.000
 CELL_REF| Angle (a,b), gamma [degree]:                                   90.000
 CELL_REF| Numerically orthorhombic:                                         YES

 *******************************************************************************
 *******************************************************************************
 **                                                                           **
 **     #####                         ##              ##                      **
 **    ##   ##            ##          ##              ##                      **
 **   ##     ##                       ##            ######                    **
 **   ##     ##  ##   ##  ##   #####  ##  ##   ####   ##    #####    #####    **
 **   ##     ##  ##   ##  ##  ##      ## ##   ##      ##   ##   ##  ##   ##   **
 **   ##  ## ##  ##   ##  ##  ##      ####     ###    ##   ######   ######    **
 **    ##  ###   ##   ##  ##  ##      ## ##      ##   ##   ##       ##        **
 **     #######   #####   ##   #####  ##  ##  ####    ##    #####   ##        **
 **           ##                                                    ##        **
 **                                                                           **
 **                                                ... make the atoms dance   **
 **                                                                           **
 **            Copyright (C) by CP2K developers group (2000 - 2018)           **
 **                                                                           **
 *******************************************************************************

 DFT| Spin unrestricted (spin-polarized) Kohn-Sham calculation               UKS
 DFT| Multiplicity                                                             2
 DFT| Number of spin states                                                    2
 DFT| Charge                                                                  -1
 DFT| Self-interaction correction (SIC)                                       NO
 DFT| Cutoffs: density                                              1.000000E-10
 DFT|          gradient                                             1.000000E-10
 DFT|          tau                                                  1.000000E-10
 DFT|          cutoff_smoothing_range                               0.000000E+00
 DFT| XC density smoothing                                                  NONE
 DFT| XC derivatives                                                          PW

 DFT+U| Method                                                          MULLIKEN
 DFT+U| Check atomic kind information for details
 FUNCTIONAL| ROUTINE=NEW
 FUNCTIONAL| PBE:
 FUNCTIONAL| J.P.Perdew, K.Burke, M.Ernzerhof, Phys. Rev. Letter, vol. 77, n 18,
 FUNCTIONAL|  pp. 3865-3868, (1996){spin polarized}                             

 QS| Method:                                                                 GPW
 QS| Density plane wave grid type                        NON-SPHERICAL FULLSPACE
 QS| Number of grid levels:                                                   10
 QS| Density cutoff [a.u.]:                                                325.0
 QS| Multi grid cutoff [a.u.]: 1) grid level                               325.0
 QS|                           2) grid level                               108.3
 QS|                           3) grid level                                36.1
 QS|                           4) grid level                                12.0
 QS|                           5) grid level                                 4.0
 QS|                           6) grid level                                 1.3
 QS|                           7) grid level                                 0.4
 QS|                           8) grid level                                 0.1
 QS|                           9) grid level                                 0.0
 QS|                          10) grid level                                 0.0
 QS| Grid level progression factor:                                          3.0
 QS| Relative density cutoff [a.u.]:                                        30.0
 QS| Consistent realspace mapping and integration 
 QS| Interaction thresholds: eps_pgf_orb:                                1.0E-12
 QS|                         eps_filter_matrix:                          0.0E+00
 QS|                         eps_core_charge:                            1.0E-14
 QS|                         eps_rho_gspace:                             1.0E-12
 QS|                         eps_rho_rspace:                             1.0E-12
 QS|                         eps_gvg_rspace:                             1.0E-06
 QS|                         eps_ppl:                                    1.0E-02
 QS|                         eps_ppnl:                                   1.0E-08


 ATOMIC KIND INFORMATION

  1. Atomic kind: Ti                                    Number of atoms:      90

     Orbital Basis Set                                         SZV-MOLOPT-SR-GTH

       Number of orbital shell sets:                                           1
       Number of orbital shells:                                               4
       Number of primitive Cartesian functions:                                6
       Number of Cartesian basis functions:                                   11
       Number of spherical basis functions:                                   10
       Norm type:                                                              2

       Normalised Cartesian orbitals:

                        Set   Shell   Orbital            Exponent    Coefficient

                          1       1    2s                7.884570       0.015554
                                                         3.894698       0.963603
                                                         1.513589      -0.631435
                                                         0.596768      -0.343022
                                                         0.222222      -0.006534
                                                         0.077078       0.007652

                          1       2    3s                7.884570      -0.009340
                                                         3.894698       0.212624
                                                         1.513589      -0.258368
                                                         0.596768      -0.226206
                                                         0.222222       0.039438
                                                         0.077078       0.107179

                          1       3    3px               7.884570      -2.034794
                                                         3.894698       0.782008
                                                         1.513589       1.253903
                                                         0.596768       0.347823
                                                         0.222222       0.016778
                                                         0.077078      -0.000433
                          1       3    3py               7.884570      -2.034794
                                                         3.894698       0.782008
                                                         1.513589       1.253903
                                                         0.596768       0.347823
                                                         0.222222       0.016778
                                                         0.077078      -0.000433
                          1       3    3pz               7.884570      -2.034794
                                                         3.894698       0.782008
                                                         1.513589       1.253903
                                                         0.596768       0.347823
                                                         0.222222       0.016778
                                                         0.077078      -0.000433

                          1       4    4dx2              7.884570       3.047350
                                                         3.894698       3.289529
                                                         1.513589       1.060616
                                                         0.596768       0.249930
                                                         0.222222       0.038806
                                                         0.077078       0.002319
                          1       4    4dxy              7.884570       5.278165
                                                         3.894698       5.697631
                                                         1.513589       1.837041
                                                         0.596768       0.432892
                                                         0.222222       0.067214
                                                         0.077078       0.004017
                          1       4    4dxz              7.884570       5.278165
                                                         3.894698       5.697631
                                                         1.513589       1.837041
                                                         0.596768       0.432892
                                                         0.222222       0.067214
                                                         0.077078       0.004017
                          1       4    4dy2              7.884570       3.047350
                                                         3.894698       3.289529
                                                         1.513589       1.060616
                                                         0.596768       0.249930
                                                         0.222222       0.038806
                                                         0.077078       0.002319
                          1       4    4dyz              7.884570       5.278165
                                                         3.894698       5.697631
                                                         1.513589       1.837041
                                                         0.596768       0.432892
                                                         0.222222       0.067214
                                                         0.077078       0.004017
                          1       4    4dz2              7.884570       3.047350
                                                         3.894698       3.289529
                                                         1.513589       1.060616
                                                         0.596768       0.249930
                                                         0.222222       0.038806
                                                         0.077078       0.002319

     GTH Potential information for                                   GTH-PBE-q12

       Description:                       Goedecker-Teter-Hutter pseudopotential
                                           Goedecker et al., PRB 54, 1703 (1996)
                                          Hartwigsen et al., PRB 58, 3641 (1998)
                                                      Krack, TCA 114, 145 (2005)

       Gaussian exponent of the core charge distribution:               3.462604
       Electronic configuration (s p d ...):                           4   6   2

       Parameters of the local part of the GTH pseudopotential:

                          rloc        C1          C2          C3          C4
                        0.380000    8.711442   -0.700287

       Parameters of the non-local part of the GTH pseudopotential:

                   l      r(l)      h(i,j,l)

                   0    0.337771    2.575264    3.692971
                                    3.692971   -4.767605
                   1    0.242531   -4.630541    8.870875
                                    8.870875  -10.496161
                   2    0.243317   -9.406653

     A DFT+U correction is applied to atoms of this atomic kind:
       Angular quantum momentum number L:                                      2
       U(eff) = (U - J) value in [eV]:                                     9.987

  2. Atomic kind: O                                     Number of atoms:     180

     Orbital Basis Set                                            SZV-MOLOPT-GTH

       Number of orbital shell sets:                                           1
       Number of orbital shells:                                               2
       Number of primitive Cartesian functions:                                7
       Number of Cartesian basis functions:                                    4
       Number of spherical basis functions:                                    4
       Norm type:                                                              2

       Normalised Cartesian orbitals:

                        Set   Shell   Orbital            Exponent    Coefficient

                          1       1    2s               12.015955      -0.284499
                                                         5.108150      -0.322498
                                                         2.048398       0.148191
                                                         0.832382       0.295475
                                                         0.352316       0.150829
                                                         0.142977       0.015788
                                                         0.046761      -0.000019

                          1       2    3px              12.015955       1.192141
                                                         5.108150       1.354170
                                                         2.048398       0.897267
                                                         0.832382       0.408839
                                                         0.352316       0.116648
                                                         0.142977       0.022184
                                                         0.046761       0.000308
                          1       2    3py              12.015955       1.192141
                                                         5.108150       1.354170
                                                         2.048398       0.897267
                                                         0.832382       0.408839
                                                         0.352316       0.116648
                                                         0.142977       0.022184
                                                         0.046761       0.000308
                          1       2    3pz              12.015955       1.192141
                                                         5.108150       1.354170
                                                         2.048398       0.897267
                                                         0.832382       0.408839
                                                         0.352316       0.116648
                                                         0.142977       0.022184
                                                         0.046761       0.000308

     GTH Potential information for                                    GTH-PBE-q6

       Description:                       Goedecker-Teter-Hutter pseudopotential
                                           Goedecker et al., PRB 54, 1703 (1996)
                                          Hartwigsen et al., PRB 58, 3641 (1998)
                                                      Krack, TCA 114, 145 (2005)

       Gaussian exponent of the core charge distribution:               8.360253
       Electronic configuration (s p d ...):                               2   4

       Parameters of the local part of the GTH pseudopotential:

                          rloc        C1          C2          C3          C4
                        0.244554  -16.667215    2.487311

       Parameters of the non-local part of the GTH pseudopotential:

                   l      r(l)      h(i,j,l)

                   0    0.220956   18.337458
                   1    0.211332


 MOLECULE KIND INFORMATION


 All atoms are their own molecule, skipping detailed information


 TOTAL NUMBERS AND MAXIMUM NUMBERS

  Total number of            - Atomic kinds:                                   2
                             - Atoms:                                        270
                             - Shell sets:                                   270
                             - Shells:                                       720
                             - Primitive Cartesian functions:               1800
                             - Cartesian basis functions:                   1710
                             - Spherical basis functions:                   1620

  Maximum angular momentum of- Orbital basis functions:                        2
                             - Local part of the GTH pseudopotential:          2
                             - Non-local part of the GTH pseudopotential:      3


 MODULE QUICKSTEP:  ATOMIC COORDINATES IN angstrom

  Atom  Kind  Element       X           Y           Z          Z(eff)       Mass

       1     1 Ti  22   -0.000477    0.001372    0.001950     12.00      47.8670
       2     1 Ti  22    2.313580    2.309272    1.489627     12.00      47.8670
       3     1 Ti  22    4.631879    0.008875    0.000882     12.00      47.8670
       4     1 Ti  22    6.934556    2.311552    1.481158     12.00      47.8670
       5     1 Ti  22    9.245620    0.000559   -0.000675     12.00      47.8670
       6     1 Ti  22   11.555430    2.313666    1.489652     12.00      47.8670
       7     1 Ti  22    0.000810    4.621931    0.001916     12.00      47.8670
       8     1 Ti  22    2.312310    6.933813    1.489290     12.00      47.8670
       9     1 Ti  22    4.623563    4.622616   -0.000676     12.00      47.8670
      10     1 Ti  22    6.936668    6.932428    1.489653     12.00      47.8670
      11     1 Ti  22    9.237306    4.614304    0.000963     12.00      47.8670
      12     1 Ti  22   11.554753    6.931748    1.489152     12.00      47.8670
      13     1 Ti  22    0.000082    9.246079    0.000724     12.00      47.8670
      14     1 Ti  22    2.314370   11.560369    1.489141     12.00      47.8670
      15     1 Ti  22    4.624372    9.245520    0.001952     12.00      47.8670
      16     1 Ti  22    6.932275   11.559578    1.489627     12.00      47.8670
      17     1 Ti  22    9.244937    9.246807    0.001918     12.00      47.8670
      18     1 Ti  22   11.556815   11.558307    1.489290     12.00      47.8670
      19     1 Ti  22    0.000244    0.000415    2.977673     12.00      47.8670
      20     1 Ti  22    2.314561    2.308200    4.467122     12.00      47.8670
      21     1 Ti  22    4.632312    0.009309    2.977942     12.00      47.8670
      22     1 Ti  22    6.934591    2.311583    4.484189     12.00      47.8670
      23     1 Ti  22    9.244552    0.001492    2.979004     12.00      47.8670
      24     1 Ti  22   11.554830    2.315138    4.467030     12.00      47.8670
      25     1 Ti  22   -0.000000    4.622753    2.977622     12.00      47.8670
      26     1 Ti  22    2.312978    6.933256    4.466619     12.00      47.8670
      27     1 Ti  22    4.624495    4.621549    2.979004     12.00      47.8670
      28     1 Ti  22    6.938141    6.931829    4.467030     12.00      47.8670
      29     1 Ti  22    9.236837    4.613836    2.978001     12.00      47.8670
      30     1 Ti  22   11.554341    6.931331    4.468894     12.00      47.8670
      31     1 Ti  22    0.000090    9.246089    2.977868     12.00      47.8670
      32     1 Ti  22    2.314830   11.560828    4.468910     12.00      47.8670
      33     1 Ti  22    4.623417    9.246242    2.977673     12.00      47.8670
      34     1 Ti  22    6.931208   11.560549    4.467122     12.00      47.8670
      35     1 Ti  22    9.245756    9.245998    2.977622     12.00      47.8670
      36     1 Ti  22   11.556262   11.558974    4.466619     12.00      47.8670
      37     1 Ti  22   -0.000900    0.001839    5.958533     12.00      47.8670
      38     1 Ti  22    2.314552    2.308470    7.452577     12.00      47.8670
      39     1 Ti  22    4.633253    0.010235    5.958779     12.00      47.8670
      40     1 Ti  22    6.934758    2.311744    7.471644     12.00      47.8670
      41     1 Ti  22    9.245716    0.001536    5.962847     12.00      47.8670
      42     1 Ti  22   11.555917    2.316015    7.452540     12.00      47.8670
      43     1 Ti  22    0.001882    4.622151    5.958574     12.00      47.8670
      44     1 Ti  22    2.313833    6.933573    7.452570     12.00      47.8670
      45     1 Ti  22    4.624544    4.622710    5.962847     12.00      47.8670
      46     1 Ti  22    6.939013    6.932916    7.452539     12.00      47.8670
      47     1 Ti  22    9.236057    4.613056    5.958788     12.00      47.8670
      48     1 Ti  22   11.552734    6.929709    7.454965     12.00      47.8670
      49     1 Ti  22    0.000130    9.246125    5.959816     12.00      47.8670
      50     1 Ti  22    2.316518   11.562517    7.454964     12.00      47.8670
      51     1 Ti  22    4.624841    9.245100    5.958533     12.00      47.8670
      52     1 Ti  22    6.931502   11.560524    7.452575     12.00      47.8670
      53     1 Ti  22    9.245165    9.247867    5.958572     12.00      47.8670
      54     1 Ti  22   11.556577   11.559822    7.452569     12.00      47.8670
      55     1 Ti  22    0.000439   -0.000525    8.947348     12.00      47.8670
      56     1 Ti  22    2.311511    2.310838   10.441071     12.00      47.8670
      57     1 Ti  22    4.636683    0.013644    8.946753     12.00      47.8670
      58     1 Ti  22    6.934826    2.311811   10.423689     12.00      47.8670
      59     1 Ti  22    9.242356    0.005814    8.949207     12.00      47.8670
      60     1 Ti  22   11.559137    2.313819   10.441115     12.00      47.8670
      61     1 Ti  22    0.001509    4.625456    8.947413     12.00      47.8670
      62     1 Ti  22    2.312913    6.934767   10.441095     12.00      47.8670
      63     1 Ti  22    4.628821    4.619345    8.949208     12.00      47.8670
      64     1 Ti  22    6.936815    6.936134   10.441115     12.00      47.8670
      65     1 Ti  22    9.232818    4.609818    8.946732     12.00      47.8670
      66     1 Ti  22   11.551347    6.928318   10.440589     12.00      47.8670
      67     1 Ti  22    0.000133    9.246126    8.947874     12.00      47.8670
      68     1 Ti  22    2.317921   11.563921   10.440580     12.00      47.8670
      69     1 Ti  22    4.622482    9.246447    8.947347     12.00      47.8670
      70     1 Ti  22    6.933877   11.557481   10.441070     12.00      47.8670
      71     1 Ti  22    9.248479    9.247475    8.947411     12.00      47.8670
      72     1 Ti  22   11.557768   11.558898   10.441095     12.00      47.8670
      73     1 Ti  22   -0.000339   -0.000060   11.932857     12.00      47.8670
      74     1 Ti  22    2.314980    2.307820   13.421018     12.00      47.8670
      75     1 Ti  22    4.636166    0.013141   11.931675     12.00      47.8670
      76     1 Ti  22    6.934663    2.311653   13.387597     12.00      47.8670
      77     1 Ti  22    9.243810    0.003642   11.926158     12.00      47.8670
      78     1 Ti  22   11.554538    2.315687   13.421129     12.00      47.8670
      79     1 Ti  22    0.001716    4.624415   11.932829     12.00      47.8670
      80     1 Ti  22    2.313330    6.933200   13.421182     12.00      47.8670
      81     1 Ti  22    4.626647    4.620801   11.926158     12.00      47.8670
      82     1 Ti  22    6.938690    6.931538   13.421130     12.00      47.8670
      83     1 Ti  22    9.233236    4.610235   11.931714     12.00      47.8670
      84     1 Ti  22   11.553762    6.930746   13.418577     12.00      47.8670
      85     1 Ti  22    0.000112    9.246107   11.931200     12.00      47.8670
      86     1 Ti  22    2.315390   11.561390   13.418558     12.00      47.8670
      87     1 Ti  22    4.622942    9.245663   11.932858     12.00      47.8670
      88     1 Ti  22    6.930831   11.560965   13.421021     12.00      47.8670
      89     1 Ti  22    9.247433    9.247695   11.932833     12.00      47.8670
      90     1 Ti  22   11.556208   11.559328   13.421183     12.00      47.8670
      91     2 O    8    1.407944    1.410012   -0.000122      6.00      15.9994
      92     2 O    8    3.212623    3.213242   -0.000745      6.00      15.9994
      93     2 O    8    0.902564    3.720996    1.486140      6.00      15.9994
      94     2 O    8    3.718947    0.902624    1.486061      6.00      15.9994
      95     2 O    8    6.029894    1.406892    0.005581      6.00      15.9994
      96     2 O    8    7.839222    3.216220    0.005605      6.00      15.9994
      97     2 O    8    5.522826    3.723220    1.485843      6.00      15.9994
      98     2 O    8    8.346221    0.899826    1.485843      6.00      15.9994
      99     2 O    8   10.656457    1.409840   -0.000770      6.00      15.9994
     100     2 O    8   12.461157    3.213054   -0.000100      6.00      15.9994
     101     2 O    8   10.150108    3.720435    1.486056      6.00      15.9994
     102     2 O    8   12.966494    0.902070    1.486109      6.00      15.9994
     103     2 O    8    1.409554    6.032261   -0.000633      6.00      15.9994
     104     2 O    8    3.213809    7.836525   -0.000608      6.00      15.9994
     105     2 O    8    0.902718    8.343317    1.486174      6.00      15.9994
     106     2 O    8    3.719688    5.526370    1.485724      6.00      15.9994
     107     2 O    8    6.032840    6.033455   -0.000771      6.00      15.9994
     108     2 O    8    7.836054    7.838155   -0.000101      6.00      15.9994
     109     2 O    8    5.525070    8.343492    1.486109      6.00      15.9994
     110     2 O    8    8.343436    5.527107    1.486056      6.00      15.9994
     111     2 O    8   10.656579    6.033577    0.000240      6.00      15.9994
     112     2 O    8   12.460215    7.837213   -0.000609      6.00      15.9994
     113     2 O    8   10.146774    8.345194    1.486134      6.00      15.9994
     114     2 O    8   12.968196    5.523773    1.486134      6.00      15.9994
     115     2 O    8    1.408822   10.654821   -0.000619      6.00      15.9994
     116     2 O    8    3.212483   12.458483    0.000220      6.00      15.9994
     117     2 O    8    0.900867   12.968287    1.486110      6.00      15.9994
     118     2 O    8    3.722287   10.146866    1.486110      6.00      15.9994
     119     2 O    8    6.033014   10.653942   -0.000122      6.00      15.9994
     120     2 O    8    7.836244   12.458621   -0.000745      6.00      15.9994
     121     2 O    8    5.525624   12.964946    1.486061      6.00      15.9994
     122     2 O    8    8.343997   10.148562    1.486140      6.00      15.9994
     123     2 O    8   10.655263   10.655552   -0.000633      6.00      15.9994
     124     2 O    8   12.459527   12.459809   -0.000608      6.00      15.9994
     125     2 O    8   10.149371   12.965687    1.485725      6.00      15.9994
     126     2 O    8   12.966318   10.148717    1.486174      6.00      15.9994
     127     2 O    8    1.408105    1.409907    2.972756      6.00      15.9994
     128     2 O    8    3.212446    3.213148    2.973063      6.00      15.9994
     129     2 O    8    0.902120    3.721191    4.462475      6.00      15.9994
     130     2 O    8    3.715877    0.901253    4.457663      6.00      15.9994
     131     2 O    8    6.030326    1.407325    2.969259      6.00      15.9994
     132     2 O    8    7.838762    3.215761    2.969267      6.00      15.9994
     133     2 O    8    5.521768    3.724309    4.459549      6.00      15.9994
     134     2 O    8    8.347312    0.898767    4.459547      6.00      15.9994
     135     2 O    8   10.656619    1.409918    2.973079      6.00      15.9994
     136     2 O    8   12.460992    3.213173    2.972721      6.00      15.9994
     137     2 O    8   10.153327    3.721896    4.457621      6.00      15.9994
     138     2 O    8   12.967036    0.901994    4.462343      6.00      15.9994
     139     2 O    8    1.409487    6.032462    2.973439      6.00      15.9994
     140     2 O    8    3.213568    7.836544    2.973460      6.00      15.9994
     141     2 O    8    0.902565    8.343441    4.462199      6.00      15.9994
     142     2 O    8    3.718915    5.527146    4.460335      6.00      15.9994
     143     2 O    8    6.032918    6.033617    2.973079      6.00      15.9994
     144     2 O    8    7.836174    7.837990    2.972721      6.00      15.9994
     145     2 O    8    5.524994    8.344035    4.462342      6.00      15.9994
     146     2 O    8    8.344896    5.530326    4.457622      6.00      15.9994
     147     2 O    8   10.656555    6.033554    2.972714      6.00      15.9994
     148     2 O    8   12.460239    7.837237    2.973038      6.00      15.9994
     149     2 O    8   10.146633    8.345569    4.462493      6.00      15.9994
     150     2 O    8   12.968571    5.523631    4.462494      6.00      15.9994
     151     2 O    8    1.408785   10.654785    2.973014      6.00      15.9994
     152     2 O    8    3.212516   12.458516    2.972678      6.00      15.9994
     153     2 O    8    0.900555   12.968472    4.462345      6.00      15.9994
     154     2 O    8    3.722472   10.146556    4.462344      6.00      15.9994
     155     2 O    8    6.032908   10.654103    2.972755      6.00      15.9994
     156     2 O    8    7.836149   12.458445    2.973063      6.00      15.9994
     157     2 O    8    5.524253   12.961872    4.457662      6.00      15.9994
     158     2 O    8    8.344192   10.148118    4.462474      6.00      15.9994
     159     2 O    8   10.655464   10.655486    2.973438      6.00      15.9994
     160     2 O    8   12.459545   12.459568    2.973459      6.00      15.9994
     161     2 O    8   10.150148   12.964914    4.460333      6.00      15.9994
     162     2 O    8   12.966442   10.148564    4.462199      6.00      15.9994
     163     2 O    8    1.407193    1.410150    5.952979      6.00      15.9994
     164     2 O    8    3.211567    3.213089    5.951881      6.00      15.9994
     165     2 O    8    0.902255    3.720702    7.451103      6.00      15.9994
     166     2 O    8    3.712691    0.900231    7.437854      6.00      15.9994
     167     2 O    8    6.019669    1.396656    5.919763      6.00      15.9994
     168     2 O    8    7.849631    3.226626    5.919658      6.00      15.9994
     169     2 O    8    5.515221    3.731293    7.441324      6.00      15.9994
     170     2 O    8    8.354300    0.892216    7.441319      6.00      15.9994
     171     2 O    8   10.657592    1.410038    5.951650      6.00      15.9994
     172     2 O    8   12.462035    3.213025    5.953029      6.00      15.9994
     173     2 O    8   10.156688    3.723068    7.437721      6.00      15.9994
     174     2 O    8   12.967107    0.902558    7.450659      6.00      15.9994
     175     2 O    8    1.409236    6.032459    5.954059      6.00      15.9994
     176     2 O    8    3.213628    7.836829    5.953804      6.00      15.9994
     177     2 O    8    0.902757    8.343433    7.449460      6.00      15.9994
     178     2 O    8    3.716209    5.530164    7.445334      6.00      15.9994
     179     2 O    8    6.033038    6.034590    5.951649      6.00      15.9994
     180     2 O    8    7.836027    7.839032    5.953029      6.00      15.9994
     181     2 O    8    5.525558    8.344105    7.450655      6.00      15.9994
     182     2 O    8    8.346069    5.533685    7.437721      6.00      15.9994
     183     2 O    8   10.658658    6.035655    5.950659      6.00      15.9994
     184     2 O    8   12.460836    7.837833    5.953106      6.00      15.9994
     185     2 O    8   10.146768    8.345347    7.450251      6.00      15.9994
     186     2 O    8   12.968351    5.523765    7.450252      6.00      15.9994
     187     2 O    8    1.408233   10.654232    5.952928      6.00      15.9994
     188     2 O    8    3.210488   12.456487    5.950593      6.00      15.9994
     189     2 O    8    0.900852   12.968434    7.449873      6.00      15.9994
     190     2 O    8    3.722434   10.146852    7.449870      6.00      15.9994
     191     2 O    8    6.033153   10.653188    5.952979      6.00      15.9994
     192     2 O    8    7.836092   12.457564    5.951876      6.00      15.9994
     193     2 O    8    5.523232   12.958682    7.437852      6.00      15.9994
     194     2 O    8    8.343706   10.148251    7.451097      6.00      15.9994
     195     2 O    8   10.655462   10.655233    5.954056      6.00      15.9994
     196     2 O    8   12.459831   12.459627    5.953805      6.00      15.9994
     197     2 O    8   10.153167   12.962205    7.445331      6.00      15.9994
     198     2 O    8   12.966435   10.148755    7.449460      6.00      15.9994
     199     2 O    8    1.409246    1.409338    8.948321      6.00      15.9994
     200     2 O    8    3.212934    3.212420    8.943470      6.00      15.9994
     201     2 O    8    0.902949    3.721014   10.440798      6.00      15.9994
     202     2 O    8    3.719929    0.902988   10.440000      6.00      15.9994
     203     2 O    8    5.996717    1.373679    8.905982      6.00      15.9994
     204     2 O    8    7.872923    3.249911    8.905841      6.00      15.9994
     205     2 O    8    5.509599    3.737181   10.437908      6.00      15.9994
     206     2 O    8    8.360191    0.886593   10.437907      6.00      15.9994
     207     2 O    8   10.656373    1.410780    8.942835      6.00      15.9994
     208     2 O    8   12.459984    3.213805    8.948194      6.00      15.9994
     209     2 O    8   10.149418    3.720247   10.439886      6.00      15.9994
     210     2 O    8   12.966366    0.902316   10.440640      6.00      15.9994
     211     2 O    8    1.408971    6.032713    8.947665      6.00      15.9994
     212     2 O    8    3.213505    7.837270    8.947511      6.00      15.9994
     213     2 O    8    0.902376    8.343816   10.441077      6.00      15.9994
     214     2 O    8    3.715684    5.530926   10.439699      6.00      15.9994
     215     2 O    8    6.033781    6.033370    8.942833      6.00      15.9994
     216     2 O    8    7.836807    7.836982    8.948191      6.00      15.9994
     217     2 O    8    5.525317    8.343365   10.440637      6.00      15.9994
     218     2 O    8    8.343247    5.526415   10.439885      6.00      15.9994
     219     2 O    8   10.659808    6.036804    8.943849      6.00      15.9994
     220     2 O    8   12.461247    7.838243    8.946866      6.00      15.9994
     221     2 O    8   10.146489    8.345258   10.441062      6.00      15.9994
     222     2 O    8   12.968261    5.523487   10.441063      6.00      15.9994
     223     2 O    8    1.407878   10.653877    8.946636      6.00      15.9994
     224     2 O    8    3.209353   12.455351    8.943739      6.00      15.9994
     225     2 O    8    0.900928   12.968715   10.440933      6.00      15.9994
     226     2 O    8    3.722717   10.146928   10.440931      6.00      15.9994
     227     2 O    8    6.032343   10.655240    8.948316      6.00      15.9994
     228     2 O    8    7.835426   12.458929    8.943461      6.00      15.9994
     229     2 O    8    5.525991   12.965918   10.439999      6.00      15.9994
     230     2 O    8    8.344017   10.148947   10.440796      6.00      15.9994
     231     2 O    8   10.655716   10.654966    8.947663      6.00      15.9994
     232     2 O    8   12.460272   12.459503    8.947513      6.00      15.9994
     233     2 O    8   10.153928   12.961678   10.439698      6.00      15.9994
     234     2 O    8   12.966817   10.148374   10.441077      6.00      15.9994
     235     2 O    8    1.408977    1.409853   11.930075      6.00      15.9994
     236     2 O    8    3.212730    3.212663   11.931444      6.00      15.9994
     237     2 O    8    0.902095    3.720752   13.419049      6.00      15.9994
     238     2 O    8    3.713314    0.899874   13.423792      6.00      15.9994
     239     2 O    8    6.007904    1.384874   11.982171      6.00      15.9994
     240     2 O    8    7.861608    3.238597   11.982281      6.00      15.9994
     241     2 O    8    5.521562    3.724593   13.420592      6.00      15.9994
     242     2 O    8    8.347597    0.898560   13.420594      6.00      15.9994
     243     2 O    8   10.656502    1.410543   11.931440      6.00      15.9994
     244     2 O    8   12.460198    3.213283   11.929976      6.00      15.9994
     245     2 O    8   10.155905    3.723291   13.423809      6.00      15.9994
     246     2 O    8   12.967065    0.902406   13.419027      6.00      15.9994
     247     2 O    8    1.409319    6.032595   11.931387      6.00      15.9994
     248     2 O    8    3.213564    7.836878   11.931401      6.00      15.9994
     249     2 O    8    0.902671    8.343408   13.419528      6.00      15.9994
     250     2 O    8    3.719051    5.527129   13.419600      6.00      15.9994
     251     2 O    8    6.033544    6.033501   11.931439      6.00      15.9994
     252     2 O    8    7.836284    7.837196   11.929975      6.00      15.9994
     253     2 O    8    5.525406    8.344064   13.419026      6.00      15.9994
     254     2 O    8    8.346291    5.532903   13.423808      6.00      15.9994
     255     2 O    8   10.658891    6.035889   11.931859      6.00      15.9994
     256     2 O    8   12.460624    7.837621   11.931227      6.00      15.9994
     257     2 O    8   10.146655    8.345266   13.419307      6.00      15.9994
     258     2 O    8   12.968269    5.523653   13.419307      6.00      15.9994
     259     2 O    8    1.408459   10.654458   11.931180      6.00      15.9994
     260     2 O    8    3.210215   12.456213   11.931815      6.00      15.9994
     261     2 O    8    0.900840   12.968461   13.419276      6.00      15.9994
     262     2 O    8    3.722462   10.146840   13.419275      6.00      15.9994
     263     2 O    8    6.032856   10.654973   11.930073      6.00      15.9994
     264     2 O    8    7.835667   12.458726   11.931442      6.00      15.9994
     265     2 O    8    5.522875   12.959305   13.423794      6.00      15.9994
     266     2 O    8    8.343754   10.148092   13.419048      6.00      15.9994
     267     2 O    8   10.655596   10.655316   11.931387      6.00      15.9994
     268     2 O    8   12.459879   12.459563   11.931401      6.00      15.9994
     269     2 O    8   10.150131   12.965049   13.419600      6.00      15.9994
     270     2 O    8   12.966409   10.148670   13.419528      6.00      15.9994




 SCF PARAMETERS         Density guess:                                   RESTART
                        --------------------------------------------------------
                        max_scf:                                             500
                        max_scf_history:                                       0
                        max_diis:                                              4
                        --------------------------------------------------------
                        eps_scf:                                        1.00E-05
                        eps_scf_history:                                0.00E+00
                        eps_diis:                                       5.00E-01
                        eps_eigval:                                     1.00E-05
                        --------------------------------------------------------
                        level_shift [a.u.]:                                 0.00
                        --------------------------------------------------------
                        Mixing method:                            BROYDEN_MIXING
                                                charge density mixing in g-space
                        --------------------------------------------------------
                        Outer loop SCF in use 
                        No variables optimised in outer loop
                        eps_scf                                         1.00E-05
                        max_scf                                              500
                        No outer loop optimization
                        step_size                                       5.00E-01

 PW_GRID| Information for grid number                                          1
 PW_GRID| Grid distributed over                                    40 processors
 PW_GRID| Real space group dimensions                                    40    1
 PW_GRID| the grid is blocked:                                                NO
 PW_GRID| Cutoff [a.u.]                                                    325.0
 PW_GRID| spherical cutoff:                                                   NO
 PW_GRID|   Bounds   1           -108     107                Points:         216
 PW_GRID|   Bounds   2           -108     107                Points:         216
 PW_GRID|   Bounds   3           -115     115                Points:         231
 PW_GRID| Volume element (a.u.^3)  0.1795E-02     Volume (a.u.^3)     19349.8300
 PW_GRID| Grid span                                                    FULLSPACE
 PW_GRID|   Distribution                         Average         Max         Min
 PW_GRID|   G-Vectors                           269438.4      269568      269352
 PW_GRID|   G-Rays                                1247.4        1248        1247
 PW_GRID|   Real Space Points                   269438.4      299376      249480

 PW_GRID| Information for grid number                                          2
 PW_GRID| Grid distributed over                                    40 processors
 PW_GRID| Real space group dimensions                                    40    1
 PW_GRID| the grid is blocked:                                                NO
 PW_GRID| Cutoff [a.u.]                                                    108.3
 PW_GRID| spherical cutoff:                                                   NO
 PW_GRID|   Bounds   1            -63      62                Points:         126
 PW_GRID|   Bounds   2            -63      62                Points:         126
 PW_GRID|   Bounds   3            -66      65                Points:         132
 PW_GRID| Volume element (a.u.^3)  0.9233E-02     Volume (a.u.^3)     19349.8300
 PW_GRID| Grid span                                                    FULLSPACE
 PW_GRID|   Distribution                         Average         Max         Min
 PW_GRID|   G-Vectors                            52390.8       52794       52290
 PW_GRID|   G-Rays                                 415.8         419         415
 PW_GRID|   Real Space Points                    52390.8       66528       49896

 PW_GRID| Information for grid number                                          3
 PW_GRID| Grid distributed over                                    40 processors
 PW_GRID| Real space group dimensions                                    40    1
 PW_GRID| the grid is blocked:                                                NO
 PW_GRID| Cutoff [a.u.]                                                     36.1
 PW_GRID| spherical cutoff:                                                   NO
 PW_GRID|   Bounds   1            -36      35                Points:          72
 PW_GRID|   Bounds   2            -36      35                Points:          72
 PW_GRID|   Bounds   3            -38      38                Points:          77
 PW_GRID| Volume element (a.u.^3)  0.4848E-01     Volume (a.u.^3)     19349.8300
 PW_GRID| Grid span                                                    FULLSPACE
 PW_GRID|   Distribution                         Average         Max         Min
 PW_GRID|   G-Vectors                             9979.2       10008        9936
 PW_GRID|   G-Rays                                 138.6         139         138
 PW_GRID|   Real Space Points                     9979.2       11088        5544

 PW_GRID| Information for grid number                                          4
 PW_GRID| Grid distributed over                                    40 processors
 PW_GRID| Real space group dimensions                                    40    1
 PW_GRID| the grid is blocked:                                                NO
 PW_GRID| Cutoff [a.u.]                                                     12.0
 PW_GRID| spherical cutoff:                                                   NO
 PW_GRID|   Bounds   1            -21      20                Points:          42
 PW_GRID|   Bounds   2            -21      20                Points:          42
 PW_GRID|   Bounds   3            -22      21                Points:          44
 PW_GRID| Volume element (a.u.^3)  0.2493         Volume (a.u.^3)     19349.8300
 PW_GRID| Grid span                                                    FULLSPACE
 PW_GRID|   Distribution                         Average         Max         Min
 PW_GRID|   G-Vectors                             1940.4        2058        1848
 PW_GRID|   G-Rays                                  46.2          49          44
 PW_GRID|   Real Space Points                     1940.4        3696        1848

 PW_GRID| Information for grid number                                          5
 PW_GRID| Grid distributed over                                    40 processors
 PW_GRID| Real space group dimensions                                     5    8
 PW_GRID| the grid is blocked:                                                NO
 PW_GRID| Cutoff [a.u.]                                                      4.0
 PW_GRID| spherical cutoff:                                                   NO
 PW_GRID|   Bounds   1            -12      11                Points:          24
 PW_GRID|   Bounds   2            -12      11                Points:          24
 PW_GRID|   Bounds   3            -12      12                Points:          25
 PW_GRID| Volume element (a.u.^3)   1.344         Volume (a.u.^3)     19349.8300
 PW_GRID| Grid span                                                    FULLSPACE
 PW_GRID|   Distribution                         Average         Max         Min
 PW_GRID|   G-Vectors                              360.0         408         336
 PW_GRID|   G-Rays                                  15.0          17          14
 PW_GRID|   Real Space Points                      360.0         375         300

 PW_GRID| Information for grid number                                          6
 PW_GRID| Grid distributed over                                    40 processors
 PW_GRID| Real space group dimensions                                     5    8
 PW_GRID| the grid is blocked:                                                NO
 PW_GRID| Cutoff [a.u.]                                                      1.3
 PW_GRID| spherical cutoff:                                                   NO
 PW_GRID|   Bounds   1             -7       6                Points:          14
 PW_GRID|   Bounds   2             -7       6                Points:          14
 PW_GRID|   Bounds   3             -7       7                Points:          15
 PW_GRID| Volume element (a.u.^3)   6.582         Volume (a.u.^3)     19349.8300
 PW_GRID| Grid span                                                    FULLSPACE
 PW_GRID|   Distribution                         Average         Max         Min
 PW_GRID|   G-Vectors                               73.5          98          56
 PW_GRID|   G-Rays                                   5.2           7           4
 PW_GRID|   Real Space Points                       73.5          90          30

 PW_GRID| Information for grid number                                          7
 PW_GRID| Grid distributed over                                    40 processors
 PW_GRID| Real space group dimensions                                     5    8
 PW_GRID| the grid is blocked:                                                NO
 PW_GRID| Cutoff [a.u.]                                                      0.4
 PW_GRID| spherical cutoff:                                                   NO
 PW_GRID|   Bounds   1             -3       3                Points:           7
 PW_GRID|   Bounds   2             -3       3                Points:           7
 PW_GRID|   Bounds   3             -4       4                Points:           9
 PW_GRID| Volume element (a.u.^3)   43.88         Volume (a.u.^3)     19349.8300
 PW_GRID| Grid span                                                    FULLSPACE
 PW_GRID|   Distribution                         Average         Max         Min
 PW_GRID|   G-Vectors                               11.0          28           0
 PW_GRID|   G-Rays                                   1.6           4           0
 PW_GRID|   Real Space Points                       11.0          18           0

 PW_GRID| Information for grid number                                          8
 PW_GRID| Grid distributed over                                    40 processors
 PW_GRID| Real space group dimensions                                     5    8
 PW_GRID| the grid is blocked:                                                NO
 PW_GRID| Cutoff [a.u.]                                                      0.1
 PW_GRID| spherical cutoff:                                                   NO
 PW_GRID|   Bounds   1             -2       2                Points:           5
 PW_GRID|   Bounds   2             -2       2                Points:           5
 PW_GRID|   Bounds   3             -2       2                Points:           5
 PW_GRID| Volume element (a.u.^3)   154.8         Volume (a.u.^3)     19349.8300
 PW_GRID| Grid span                                                    FULLSPACE
 PW_GRID|   Distribution                         Average         Max         Min
 PW_GRID|   G-Vectors                                3.1          10           0
 PW_GRID|   G-Rays                                   0.6           2           0
 PW_GRID|   Real Space Points                        3.1           5           0

 PW_GRID| Information for grid number                                          9
 PW_GRID| Grid distributed over                                    40 processors
 PW_GRID| Real space group dimensions                                     5    8
 PW_GRID| the grid is blocked:                                                NO
 PW_GRID| Cutoff [a.u.]                                                      0.0
 PW_GRID| spherical cutoff:                                                   NO
 PW_GRID|   Bounds   1             -1       1                Points:           3
 PW_GRID|   Bounds   2             -1       1                Points:           3
 PW_GRID|   Bounds   3             -1       1                Points:           3
 PW_GRID| Volume element (a.u.^3)   716.7         Volume (a.u.^3)     19349.8300
 PW_GRID| Grid span                                                    FULLSPACE
 PW_GRID|   Distribution                         Average         Max         Min
 PW_GRID|   G-Vectors                                0.7           3           0
 PW_GRID|   G-Rays                                   0.2           1           0
 PW_GRID|   Real Space Points                        0.7           3           0

 PW_GRID| Information for grid number                                         10
 PW_GRID| Grid distributed over                                    40 processors
 PW_GRID| Real space group dimensions                                     5    8
 PW_GRID| the grid is blocked:                                                NO
 PW_GRID| Cutoff [a.u.]                                                      0.0
 PW_GRID| spherical cutoff:                                                   NO
 PW_GRID|   Bounds   1              0       0                Points:           1
 PW_GRID|   Bounds   2              0       0                Points:           1
 PW_GRID|   Bounds   3              0       0                Points:           1
 PW_GRID| Volume element (a.u.^3)  0.1935E+05     Volume (a.u.^3)     19349.8300
 PW_GRID| Grid span                                                    FULLSPACE
 PW_GRID|   Distribution                         Average         Max         Min
 PW_GRID|   G-Vectors                                0.0           1           0
 PW_GRID|   G-Rays                                   0.0           1           0
 PW_GRID|   Real Space Points                        0.0           1           0

 POISSON| Solver                                                        PERIODIC
 POISSON| Periodicity                                                        XYZ

 RS_GRID| Information for grid number                                          1
 RS_GRID|   Bounds   1           -108     107                Points:         216
 RS_GRID|   Bounds   2           -108     107                Points:         216
 RS_GRID|   Bounds   3           -115     115                Points:         231
 RS_GRID| Real space distribution over                                  5 groups
 RS_GRID| Real space distribution along direction                              2
 RS_GRID| Border size                                                         27
 RS_GRID| Real space distribution over                                  8 groups
 RS_GRID| Real space distribution along direction                              3
 RS_GRID| Border size                                                         27
 RS_GRID|   Distribution                         Average         Max         Min
 RS_GRID|   Planes                                  97.2          98          97
 RS_GRID|   Distribution                         Average         Max         Min
 RS_GRID|   Planes                                  82.9          83          82

 RS_GRID| Information for grid number                                          2
 RS_GRID|   Bounds   1            -63      62                Points:         126
 RS_GRID|   Bounds   2            -63      62                Points:         126
 RS_GRID|   Bounds   3            -66      65                Points:         132
 RS_GRID| Real space distribution over                                  5 groups
 RS_GRID| Real space distribution along direction                              2
 RS_GRID| Border size                                                         26
 RS_GRID| Real space distribution over                                  8 groups
 RS_GRID| Real space distribution along direction                              3
 RS_GRID| Border size                                                         26
 RS_GRID|   Distribution                         Average         Max         Min
 RS_GRID|   Planes                                  77.2          78          77
 RS_GRID|   Distribution                         Average         Max         Min
 RS_GRID|   Planes                                  68.5          69          68

 RS_GRID| Information for grid number                                          3
 RS_GRID|   Bounds   1            -36      35                Points:          72
 RS_GRID|   Bounds   2            -36      35                Points:          72
 RS_GRID|   Bounds   3            -38      38                Points:          77
 RS_GRID| Real space fully replicated
 RS_GRID| Group size                                                           1

 RS_GRID| Information for grid number                                          4
 RS_GRID|   Bounds   1            -21      20                Points:          42
 RS_GRID|   Bounds   2            -21      20                Points:          42
 RS_GRID|   Bounds   3            -22      21                Points:          44
 RS_GRID| Real space fully replicated
 RS_GRID| Group size                                                           1

 RS_GRID| Information for grid number                                          5
 RS_GRID|   Bounds   1            -12      11                Points:          24
 RS_GRID|   Bounds   2            -12      11                Points:          24
 RS_GRID|   Bounds   3            -12      12                Points:          25
 RS_GRID| Real space fully replicated
 RS_GRID| Group size                                                           1

 RS_GRID| Information for grid number                                          6
 RS_GRID|   Bounds   1             -7       6                Points:          14
 RS_GRID|   Bounds   2             -7       6                Points:          14
 RS_GRID|   Bounds   3             -7       7                Points:          15
 RS_GRID| Real space fully replicated
 RS_GRID| Group size                                                           1

 RS_GRID| Information for grid number                                          7
 RS_GRID|   Bounds   1             -3       3                Points:           7
 RS_GRID|   Bounds   2             -3       3                Points:           7
 RS_GRID|   Bounds   3             -4       4                Points:           9
 RS_GRID| Real space fully replicated
 RS_GRID| Group size                                                           1

 RS_GRID| Information for grid number                                          8
 RS_GRID|   Bounds   1             -2       2                Points:           5
 RS_GRID|   Bounds   2             -2       2                Points:           5
 RS_GRID|   Bounds   3             -2       2                Points:           5
 RS_GRID| Real space fully replicated
 RS_GRID| Group size                                                           1

 RS_GRID| Information for grid number                                          9
 RS_GRID|   Bounds   1             -1       1                Points:           3
 RS_GRID|   Bounds   2             -1       1                Points:           3
 RS_GRID|   Bounds   3             -1       1                Points:           3
 RS_GRID| Real space fully replicated
 RS_GRID| Group size                                                           1

 RS_GRID| Information for grid number                                         10
 RS_GRID|   Bounds   1              0       0                Points:           1
 RS_GRID|   Bounds   2              0       0                Points:           1
 RS_GRID|   Bounds   3              0       0                Points:           1
 RS_GRID| Real space fully replicated
 RS_GRID| Group size                                                           1

 Spin 1

 Number of electrons:                                                       1081
 Number of occupied orbitals:                                               1081
 Number of molecular orbitals:                                              1081

 Spin 2

 Number of electrons:                                                       1080
 Number of occupied orbitals:                                               1080
 Number of molecular orbitals:                                              1080

 Number of orbital functions:                                               1620
 Number of independent orbital functions:                                   1620

 Extrapolation method: initial_guess


 SCF WAVEFUNCTION OPTIMIZATION

  Step     Update method      Time    Convergence         Total energy    Change
  ------------------------------------------------------------------------------
     1 NoMix/Diag. 0.40E+00    5.8     0.00913740     -8111.7721105577 -8.11E+03
     2 Broy./Diag. 0.40E+00    9.8     0.00491465     -8111.7689763646  3.13E-03
     3 Broy./Diag. 0.40E+00    9.7     0.00131293     -8111.7744455263 -5.47E-03
     4 Broy./Diag. 0.40E+00    9.7     0.00060624     -8111.7785223704 -4.08E-03
     5 Broy./Diag. 0.40E+00    9.8     0.00021404     -8111.7782755392  2.47E-04
     6 Broy./Diag. 0.40E+00    9.9     0.00011440     -8111.7754809232  2.79E-03
     7 Broy./Diag. 0.40E+00    9.7     0.00009620     -8111.7749158102  5.65E-04
     8 Broy./Diag. 0.40E+00    9.7     0.00005261     -8111.7748305497  8.53E-05
     9 Broy./Diag. 0.40E+00    9.8     0.00002778     -8111.7746585920  1.72E-04
    10 Broy./Diag. 0.40E+00    9.7     0.00001162     -8111.7747947666 -1.36E-04
    11 Broy./Diag. 0.40E+00    9.8     0.00001085     -8111.7748531619 -5.84E-05
    12 Broy./Diag. 0.40E+00    9.8     0.00000527     -8111.7748905227 -3.74E-05

  *** SCF run converged in    12 steps ***


  Electronic density on regular grids:      -2160.9999999994        0.0000000006
  Core density on regular grids:             2159.9999999994       -0.0000000006
  Total charge density on r-space grids:       -1.0000000000
  Total charge density g-space grids:          -1.0000000000

  Overlap energy of the core charge distribution:               0.00000000000199
  Self energy of the core charge distribution:             -17095.63438313942970
  Core Hamiltonian energy:                                   4650.80290442390833
  Hartree energy:                                            5621.22015111237943
  Exchange-correlation energy:                              -1307.30690181420823

  DFT+U energy:                                                19.14333889462082

  Total energy:                                             -8111.77489052272540

  outer SCF iter =    1 RMS gradient =   0.53E-05 energy =      -8111.7748905227
  outer SCF loop converged in   1 iterations or   12 steps


  Integrated absolute spin density  :                               1.0890294827
  Ideal and single determinant S**2 :                    0.750000       0.754746

 !-----------------------------------------------------------------------------!
                     Mulliken Population Analysis

 #  Atom  Element  Kind  Atomic population (alpha,beta) Net charge  Spin moment
       1     Ti       1         5.244745     5.244751     1.510505    -0.000006
       2     Ti       1         5.244702     5.244700     1.510599     0.000002
       3     Ti       1         5.244773     5.244967     1.510260    -0.000194
       4     Ti       1         5.245493     5.244955     1.509552     0.000538
       5     Ti       1         5.244728     5.244747     1.510526    -0.000019
       6     Ti       1         5.244707     5.244705     1.510588     0.000002
       7     Ti       1         5.244743     5.244749     1.510508    -0.000006
       8     Ti       1         5.244811     5.244826     1.510362    -0.000015
       9     Ti       1         5.244728     5.244747     1.510526    -0.000019
      10     Ti       1         5.244707     5.244705     1.510588     0.000002
      11     Ti       1         5.244771     5.244966     1.510263    -0.000194
      12     Ti       1         5.245354     5.245363     1.509283    -0.000009
      13     Ti       1         5.245102     5.245087     1.509811     0.000015
      14     Ti       1         5.245357     5.245366     1.509278    -0.000009
      15     Ti       1         5.244745     5.244751     1.510504    -0.000006
      16     Ti       1         5.244702     5.244700     1.510599     0.000002
      17     Ti       1         5.244743     5.244749     1.510508    -0.000006
      18     Ti       1         5.244811     5.244826     1.510362    -0.000015
      19     Ti       1         5.244743     5.244747     1.510510    -0.000004
      20     Ti       1         5.244784     5.244782     1.510434     0.000003
      21     Ti       1         5.245143     5.245146     1.509711    -0.000003
      22     Ti       1         5.245997     5.245383     1.508621     0.000614
      23     Ti       1         5.244707     5.244710     1.510584    -0.000003
      24     Ti       1         5.244783     5.244780     1.510437     0.000003
      25     Ti       1         5.244739     5.244743     1.510518    -0.000004
      26     Ti       1         5.244716     5.244732     1.510553    -0.000016
      27     Ti       1         5.244707     5.244710     1.510584    -0.000003
      28     Ti       1         5.244783     5.244780     1.510437     0.000003
      29     Ti       1         5.245145     5.245149     1.509706    -0.000003
      30     Ti       1         5.245314     5.245320     1.509366    -0.000006
      31     Ti       1         5.245045     5.245053     1.509902    -0.000008
      32     Ti       1         5.245313     5.245319     1.509368    -0.000006
      33     Ti       1         5.244743     5.244747     1.510509    -0.000004
      34     Ti       1         5.244784     5.244782     1.510434     0.000003
      35     Ti       1         5.244739     5.244743     1.510518    -0.000004
      36     Ti       1         5.244716     5.244732     1.510552    -0.000016
      37     Ti       1         5.244898     5.244904     1.510197    -0.000006
      38     Ti       1         5.245220     5.245239     1.509541    -0.000018
      39     Ti       1         5.244699     5.244834     1.510468    -0.000135
      40     Ti       1         5.245108     5.249896     1.504997    -0.004788
      41     Ti       1         5.245330     5.245346     1.509324    -0.000016
      42     Ti       1         5.245206     5.245224     1.509570    -0.000018
      43     Ti       1         5.244899     5.244905     1.510196    -0.000006
      44     Ti       1         5.244849     5.244832     1.510318     0.000017
      45     Ti       1         5.245330     5.245346     1.509324    -0.000016
      46     Ti       1         5.245206     5.245224     1.509570    -0.000018
      47     Ti       1         5.244706     5.244841     1.510454    -0.000135
      48     Ti       1         5.245758     5.245506     1.508736     0.000252
      49     Ti       1         5.245136     5.245117     1.509747     0.000018
      50     Ti       1         5.245764     5.245512     1.508724     0.000252
      51     Ti       1         5.244898     5.244904     1.510197    -0.000006
      52     Ti       1         5.245220     5.245239     1.509541    -0.000018
      53     Ti       1         5.244899     5.244905     1.510196    -0.000006
      54     Ti       1         5.244849     5.244833     1.510318     0.000017
      55     Ti       1         5.244868     5.244865     1.510267     0.000003
      56     Ti       1         5.244651     5.244687     1.510663    -0.000036
      57     Ti       1         5.248086     5.243668     1.508246     0.004417
      58     Ti       1         5.787207     4.789707     1.423086     0.997500
      59     Ti       1         5.247091     5.245731     1.507178     0.001360
      60     Ti       1         5.244643     5.244679     1.510677    -0.000036
      61     Ti       1         5.244869     5.244865     1.510266     0.000003
      62     Ti       1         5.244663     5.244523     1.510814     0.000140
      63     Ti       1         5.247092     5.245731     1.507177     0.001360
      64     Ti       1         5.244643     5.244679     1.510677    -0.000036
      65     Ti       1         5.248080     5.243669     1.508251     0.004410
      66     Ti       1         5.246469     5.245290     1.508240     0.001179
      67     Ti       1         5.245356     5.245038     1.509606     0.000317
      68     Ti       1         5.246481     5.245301     1.508217     0.001180
      69     Ti       1         5.244868     5.244865     1.510267     0.000003
      70     Ti       1         5.244651     5.244687     1.510663    -0.000036
      71     Ti       1         5.244869     5.244865     1.510266     0.000003
      72     Ti       1         5.244663     5.244523     1.510814     0.000140
      73     Ti       1         5.244646     5.244642     1.510713     0.000004
      74     Ti       1         5.244590     5.244603     1.510807    -0.000013
      75     Ti       1         5.247830     5.243803     1.508367     0.004026
      76     Ti       1         5.242917     5.247034     1.510049    -0.004117
      77     Ti       1         5.246168     5.244903     1.508929     0.001265
      78     Ti       1         5.244591     5.244604     1.510805    -0.000013
      79     Ti       1         5.244650     5.244646     1.510705     0.000004
      80     Ti       1         5.244818     5.244798     1.510384     0.000019
      81     Ti       1         5.246169     5.244904     1.508927     0.001265
      82     Ti       1         5.244591     5.244604     1.510805    -0.000013
      83     Ti       1         5.247823     5.243800     1.508377     0.004023
      84     Ti       1         5.245418     5.245194     1.509387     0.000224
      85     Ti       1         5.245181     5.244879     1.509941     0.000302
      86     Ti       1         5.245425     5.245201     1.509374     0.000224
      87     Ti       1         5.244646     5.244642     1.510713     0.000004
      88     Ti       1         5.244590     5.244603     1.510807    -0.000013
      89     Ti       1         5.244650     5.244646     1.510705     0.000004
      90     Ti       1         5.244818     5.244798     1.510384     0.000019
      91     O        2         3.379686     3.379707    -0.759393    -0.000022
      92     O        2         3.379649     3.379660    -0.759308    -0.000011
      93     O        2         3.379755     3.379758    -0.759513    -0.000003
      94     O        2         3.379916     3.379913    -0.759829     0.000003
      95     O        2         3.380935     3.381029    -0.761963    -0.000094
      96     O        2         3.380938     3.381033    -0.761971    -0.000095
      97     O        2         3.379649     3.379694    -0.759343    -0.000045
      98     O        2         3.379649     3.379694    -0.759343    -0.000045
      99     O        2         3.379653     3.379664    -0.759318    -0.000011
     100     O        2         3.379675     3.379697    -0.759372    -0.000022
     101     O        2         3.379915     3.379911    -0.759826     0.000003
     102     O        2         3.379759     3.379762    -0.759522    -0.000003
     103     O        2         3.379723     3.379728    -0.759451    -0.000005
     104     O        2         3.379714     3.379719    -0.759433    -0.000005
     105     O        2         3.379855     3.379857    -0.759712    -0.000001
     106     O        2         3.380208     3.380199    -0.760407     0.000009
     107     O        2         3.379653     3.379664    -0.759318    -0.000011
[...]
       0.22531405       0.22538426       0.22576111       0.22607881
       0.22719281       0.22746843       0.22765538       0.22786714
       0.22791564       0.22908101       0.23025979       0.23825340
       0.23833927       0.23859681       0.23874655       0.23881193
       0.23882274       0.23912591       0.23913877       0.23927591
       0.23946460       0.23961941       0.23970165       0.23979407
       0.24024672       0.24090484       0.24139132       0.24185163
       0.24203196       0.24231792       0.24252108       0.24267937
       0.24278932       0.24295931       0.24315352       0.24386620
       0.24389626       0.24479149       0.24503274       0.24565499
       0.24571705       0.24583055       0.24586406       0.24600556
       0.24615590       0.24628389       0.24650744       0.24669662
       0.24696027       0.24699812       0.24701990       0.24710917
       0.24901006       0.25197456       0.25206127       0.25224845
       0.25236722       0.25246959       0.25263222       0.25266204
       0.25279949       0.25295489       0.25310539       0.25320381
       0.25324311       0.25349446       0.25364559       0.25372819
       0.25441095       0.25445915       0.25479385       0.25496861
       0.25499098       0.25537965       0.25545402       0.25588981
       0.25595500       0.25648681       0.25668230       0.25733226
       0.25779744       0.25803403       0.25821605       0.25994003
       0.26059909       0.26063849       0.26069300       0.26087649
       0.26100831       0.26132122       0.26144349       0.26160506
       0.26176594       0.26191722       0.26195975       0.26214901
       0.26217357       0.26218375       0.26224880       0.26290188
       0.26291646       0.26331528       0.26359573       0.26364547
       0.26405747       0.26422283       0.26424885       0.26439744
       0.26444323       0.26451359       0.26480569       0.26498876
       0.26510808       0.26539117       0.26565815       0.26587482
       0.26685691       0.26692488       0.26701259       0.26753332
       0.26758164       0.26788416       0.26837807       0.27007316
       0.27372904       0.27375479       0.27414420       0.27425488
       0.27435147       0.27463317       0.27495235       0.27497397
       0.27888517       0.27920165       0.27924397       0.27925636
       0.27949478       0.27963657       0.27971985       0.28066323
       0.28089146       0.28099416       0.28106804       0.28118799
       0.28128168       0.28145221       0.28145684       0.28156667
       0.28169868       0.28188153       0.28214973       0.28226670
       0.28256589       0.28256727       0.28263312       0.28283086
       0.28341090       0.28348285       0.28349190       0.28373464
       0.28391621       0.28397701       0.28406835       0.28427155
       0.28452201       0.28464973       0.28477458       0.28512051
       0.28517408       0.28527336       0.28534123       0.28544197
       0.28551620       0.28563289       0.28599950       0.28621232
       0.28629053       0.28630129       0.28653778       0.28655902
       0.28676774       0.28695054       0.28846383       0.28904989
       0.28942328       0.28961660       0.29135541       0.29166128
       0.29225216       0.29357019       0.29393543       0.29411899
       0.29428680       0.29476439       0.29494140       0.29515232
       0.29546097       0.29550633       0.29564583       0.29599179
       0.29700918       0.29722080       0.30017890       0.30028882
       0.30038722       0.30048130       0.30051918       0.30052546
       0.30055679       0.30082678       0.30085557       0.30110431
       0.30124632       0.30145436       0.30189909       0.30200692
       0.30251979       0.30297570       0.30453593       0.30463127
       0.30493667       0.30515614       0.30525269       0.30531319
       0.30557383       0.30625831       0.30941111       0.30976021
       0.30994871       0.31038552       0.31200787       0.31227926
       0.31233002       0.31240390       0.31267394       0.31314046
       0.31332308       0.31373743       0.31435923       0.31614066
       0.31636244       0.31679654       0.31687770       0.32044022
       0.32054164       0.32059099       0.32072715       0.32092077
       0.32105142       0.32124625       0.32170368       0.32570863
       0.32589945       0.32630627       0.32664062       0.32762142
       0.32762926       0.33154512       0.33197271       0.34075404
 Fermi Energy [eV] :    9.272389
  
  Lowest eigenvalues of the unoccupied subspace spin            1
 ---------------------------------------------

  
  Lowest eigenvalues of the unoccupied subspace spin            2
 ---------------------------------------------


 ENERGY| Total FORCE_EVAL ( QS ) energy (a.u.):            -8111.774890522725400


 -------------------------------------------------------------------------------
 -                                                                             -
 -                                DBCSR STATISTICS                             -
 -                                                                             -
 -------------------------------------------------------------------------------
 COUNTER                                    TOTAL       BLAS       SMM       ACC
 flops     4 x    25 x     4             25920000     100.0%      0.0%      0.0%
 flops    10 x    25 x     4             32400000     100.0%      0.0%      0.0%
 flops     4 x    25 x    10             32400000     100.0%      0.0%      0.0%
 flops    10 x    25 x    10             40500000     100.0%      0.0%      0.0%
 flops     4 x    24 x     4             49766400     100.0%      0.0%      0.0%
 flops    10 x    24 x     4             62208000     100.0%      0.0%      0.0%
 flops     4 x    24 x    10             62208000     100.0%      0.0%      0.0%
 flops    10 x    24 x    10             77760000     100.0%      0.0%      0.0%
 flops     4 x     4 x    56            379491840     100.0%      0.0%      0.0%
 flops     4 x     4 x    57            386268480     100.0%      0.0%      0.0%
 flops    10 x     4 x    56            471744000     100.0%      0.0%      0.0%
 flops     4 x    10 x    56            471744000     100.0%      0.0%      0.0%
 flops    10 x     4 x    57            480168000     100.0%      0.0%      0.0%
 flops     4 x    10 x    57            480168000     100.0%      0.0%      0.0%
 flops    10 x    10 x    56            596232000     100.0%      0.0%      0.0%
 flops    10 x    10 x    57            606879000     100.0%      0.0%      0.0%
 flops     4 x     4 x    32           2602229760     100.0%      0.0%      0.0%
 flops    10 x     4 x    32           3234816000     100.0%      0.0%      0.0%
 flops     4 x    10 x    32           3234816000     100.0%      0.0%      0.0%
 flops     4 x    32 x     4           3284582400     100.0%      0.0%      0.0%
 flops    10 x    10 x    32           4088448000     100.0%      0.0%      0.0%
 flops    10 x    32 x     4           4105728000     100.0%      0.0%      0.0%
 flops     4 x    32 x    10           4105728000     100.0%      0.0%      0.0%
 flops    10 x    32 x    10           5132160000     100.0%      0.0%      0.0%
 flops     4 x     4 x    64          11276328960     100.0%      0.0%      0.0%
 flops    10 x     4 x    64          14017536000     100.0%      0.0%      0.0%
 flops     4 x    10 x    64          14017536000     100.0%      0.0%      0.0%
 flops    10 x    10 x    64          17716608000     100.0%      0.0%      0.0%
 flops inhomo. stacks                           0       0.0%      0.0%      0.0%
 flops total                        91.072375E+09     100.0%      0.0%      0.0%
 flops max/rank                      2.448057E+09     100.0%      0.0%      0.0%
 matmuls inhomo. stacks                         0       0.0%      0.0%      0.0%
 matmuls total                           26460000     100.0%      0.0%      0.0%
 number of processed stacks                 96160     100.0%      0.0%      0.0%
 average stack size                                   275.2       0.0       0.0
 marketing flops                   164.465885E+09
 -------------------------------------------------------------------------------
 # multiplications                             29
 max memory usage/rank             417.120256E+06
 # max total images/rank                        5
 # max 3D layers                                1
 # MPI messages exchanged                   73080
 MPI messages size (bytes):
  total size                         7.498436E+09
  min size                          40.960000E+03
  max size                         280.704000E+03
  average size                     102.605852E+03
 MPI breakdown and total messages size (bytes):
             size <=      128                   0                        0
       128 < size <=     8192                   0                        0
      8192 < size <=    32768                   0                        0
     32768 < size <=   131072               57816               4237064640
    131072 < size <=  4194304               15264               3261371040
   4194304 < size <= 16777216                   0                        0
  16777216 < size                               0                        0
 -------------------------------------------------------------------------------

 *** WARNING in dbcsr/mm/dbcsr_mm.F:268 :: Using a non-square number of ***
 *** MPI ranks might lead to poor performance.                          ***
 *** Used ranks: 40                                                     ***
 *** Suggested: 36 81                                                   ***

 -------------------------------------------------------------------------------

 MEMORY| Estimated peak process memory [MiB]                                 403

 -------------------------------------------------------------------------------
 ----                             MULTIGRID INFO                            ----
 -------------------------------------------------------------------------------
 count for grid        1:         884870          cutoff [a.u.]          325.00
 count for grid        2:         501762          cutoff [a.u.]          108.33
 count for grid        3:         797664          cutoff [a.u.]           36.11
 count for grid        4:        1053935          cutoff [a.u.]           12.04
 count for grid        5:         551058          cutoff [a.u.]            4.01
 count for grid        6:              0          cutoff [a.u.]            1.34
 count for grid        7:              0          cutoff [a.u.]            0.45
 count for grid        8:              0          cutoff [a.u.]            0.15
 count for grid        9:              0          cutoff [a.u.]            0.05
 count for grid       10:              0          cutoff [a.u.]            0.02
 total gridlevel count  :        3789289

 -------------------------------------------------------------------------------
 -                                                                             -
 -                         MESSAGE PASSING PERFORMANCE                         -
 -                                                                             -
 -------------------------------------------------------------------------------

 ROUTINE             CALLS      AVE VOLUME [Bytes]
 MP_Group               39
 MP_Bcast             2309                 167765.
 MP_Allreduce          691                   1377.
 MP_Sync               434
 MP_Alltoall          1509                2004512.
 MP_ISendRecv        15600                  15276.
 MP_Wait             23972
 MP_comm_split          24
 MP_ISend             9522                 129091.
 MP_IRecv             9488                 128738.
 MP_Recv                66                 414720.
 MP_Memory            4498
 -------------------------------------------------------------------------------


 -------------------------------------------------------------------------------
 -                                                                             -
 -                           R E F E R E N C E S                               -
 -                                                                             -
 -------------------------------------------------------------------------------
 
 CP2K version 6.1, the CP2K developers group (2018).
 CP2K is freely available from https://www.cp2k.org/ .

 Schuett, Ole; Messmer, Peter; Hutter, Juerg; VandeVondele, Joost. 
 Electronic Structure Calculations on Graphics Processing Units, John Wiley & Sons, Ltd, 173-190 (2016). 
 GPU-Accelerated Sparse Matrix-Matrix Multiplication for Linear Scaling Density Functional Theory.
 http://dx.doi.org/10.1002/9781118670712.ch8


 Borstnik, U; VandeVondele, J; Weber, V; Hutter, J. 
 PARALLEL COMPUTING, 40 (5-6), 47-58 (2014). 
 Sparse matrix multiplication: The distributed block-compressed sparse
 row library.
 http://dx.doi.org/10.1016/j.parco.2014.03.012


 Hutter, J; Iannuzzi, M; Schiffmann, F; VandeVondele, J. 
 WILEY INTERDISCIPLINARY REVIEWS-COMPUTATIONAL MOLECULAR SCIENCE, 4 (1), 15-25 (2014). 
 CP2K: atomistic simulations of condensed matter systems.
 http://dx.doi.org/10.1002/wcms.1159


 VandeVondele, J; Hutter, J. 
 JOURNAL OF CHEMICAL PHYSICS, 127 (11), 114105 (2007). 
 Gaussian basis sets for accurate calculations on molecular systems in
 gas and condensed phases.
 http://dx.doi.org/10.1063/1.2770708


 Krack, M. 
 THEORETICAL CHEMISTRY ACCOUNTS, 114 (1-3), 145-152 (2005). 
 Pseudopotentials for H to Kr optimized for gradient-corrected
 exchange-correlation functionals.
 http://dx.doi.org/10.1007/s00214-005-0655-y


 VandeVondele, J; Krack, M; Mohamed, F; Parrinello, M; Chassaing, T;
 Hutter, J. COMPUTER PHYSICS COMMUNICATIONS, 167 (2), 103-128 (2005). 
 QUICKSTEP: Fast and accurate density functional calculations using a
 mixed Gaussian and plane waves approach.
 http://dx.doi.org/10.1016/j.cpc.2004.12.014


 Frigo, M; Johnson, SG. 
 PROCEEDINGS OF THE IEEE, 93 (2), 216-231 (2005). 
 The design and implementation of FFTW3.
 http://dx.doi.org/10.1109/JPROC.2004.840301


 Hartwigsen, C; Goedecker, S; Hutter, J. 
 PHYSICAL REVIEW B, 58 (7), 3641-3662 (1998). 
 Relativistic separable dual-space Gaussian pseudopotentials from H to Rn.
 http://dx.doi.org/10.1103/PhysRevB.58.3641


 Dudarev, SL; Botton, GA; Savrasov, SY; Humphreys, CJ; Sutton, AP. 
 PHYSICAL REVIEW B, 57 (3), 1505-1509 (1998). 
 Electron-energy-loss spectra and the structural stability of
 nickel oxide: An LSDA+U study.
 http://dx.doi.org/10.1103/PhysRevB.57.1505


 Lippert, G; Hutter, J; Parrinello, M. 
 MOLECULAR PHYSICS, 92 (3), 477-487 (1997). 
 A hybrid Gaussian and plane wave density functional scheme.
 http://dx.doi.org/10.1080/002689797170220


 Dudarev, SL; Manh, DN; Sutton, AP. 
 PHILOSOPHICAL MAGAZINE B, 75 (5), 613-628 (1997). 
 Effect of Mott-Hubbard correlations on the electronic
 structure and structural stability of uranium dioxide.
 http://dx.doi.org/10.1080/13642819708202343


 Perdew, JP; Burke, K; Ernzerhof, M. 
 PHYSICAL REVIEW LETTERS, 77 (18), 3865-3868 (1996). 
 Generalized gradient approximation made simple.
 http://dx.doi.org/10.1103/PhysRevLett.77.3865


 Goedecker, S; Teter, M; Hutter, J. 
 PHYSICAL REVIEW B, 54 (3), 1703-1710 (1996). 
 Separable dual-space Gaussian pseudopotentials.
 http://dx.doi.org/10.1103/PhysRevB.54.1703


 -------------------------------------------------------------------------------
 -                                                                             -
 -                                T I M I N G                                  -
 -                                                                             -
 -------------------------------------------------------------------------------
 SUBROUTINE                       CALLS  ASD         SELF TIME        TOTAL TIME
                                MAXIMUM       AVERAGE  MAXIMUM  AVERAGE  MAXIMUM
 CP2K                                 1  1.0    0.031    0.034  130.354  130.355
 qs_energies                          1  2.0    0.000    0.000  130.058  130.060
 scf_env_do_scf                       1  3.0    0.000    0.000  116.932  117.272
 scf_env_do_scf_inner_loop           12  4.0    0.001    0.001  116.932  117.272
 qs_ks_update_qs_env                 12  5.0    0.001    0.001   58.723   58.759
 rebuild_ks_matrix                   12  6.0    0.000    0.000   58.715   58.751
 qs_ks_build_kohn_sham_matrix        12  7.0    0.105    0.141   58.715   58.751
 qs_rho_update_rho                   13  5.0    0.000    0.000   49.837   49.838
 calculate_rho_elec                  26  6.0   43.926   44.917   49.837   49.838
 sum_up_and_integrate                12  8.0    0.026    0.030   45.179   45.181
 integrate_v_rspace                  24  9.0   40.898   41.755   45.153   45.161
 pw_transfer                        753  9.5    0.033    0.043   15.570   16.128
 fft_wrap_pw1pw2                    729 10.5    0.005    0.006   15.483   16.051
 fft_wrap_pw1pw2_330                279 11.6    0.740    0.890   14.840   15.312
 fft3d_ps                           729 12.5    6.826    7.647   12.948   14.021
 qs_vxc_create                       12  8.0    0.000    0.000   12.470   12.516
 xc_vxc_pw_create                    12  9.0    0.151    0.194   12.470   12.516
 qs_scf_new_mos                      12  5.0    0.000    0.001    9.502    9.561
 eigensolver                         24  6.0    0.001    0.002    8.831    8.837
 qs_energies_init_hamiltonians        1  3.0    0.000    0.000    8.123    8.123
 build_core_hamiltonian_matrix        1  4.0    0.000    0.000    7.122    7.687
 xc_rho_set_and_dset_create          12 10.0    0.073    0.088    6.621    7.103
 cp_fm_syevd                         24  7.0    0.000    0.000    7.014    7.020
 mp_alltoall_z22v                   729 14.5    5.154    7.014    5.154    7.014
 cp_fm_redistribute_end              24  8.0    2.118    6.959    2.129    6.967
 cp_fm_syevd_base                    24  8.0    4.811    6.883    4.811    6.883
 density_rs2pw                       26  7.0    0.002    0.002    5.413    6.723
 rs_pw_transfer                     504  9.4    0.004    0.005    4.698    6.166
 build_core_ppnl                      1  5.0    4.355    4.738    4.355    4.738
 mp_waitany                        4776 11.3    2.589    4.450    2.589    4.450
 init_scf_run                         1  3.0    0.000    0.000    4.355    4.357
 scf_env_initial_rho_setup            1  4.0    0.000    0.000    4.330    4.330
 yz_to_x                            201 13.1    0.300    0.338    2.890    3.973
 rs_pw_transfer_RS2PW_330            28  8.9    0.432    0.538    2.524    3.969
 x_to_yz                            228 13.9    0.614    0.729    3.175    3.744
 potential_pw2rs                     24 10.0    0.004    0.004    3.043    3.050
 build_core_ppl                       1  5.0    2.570    2.778    2.570    2.778
 xc_functional_eval                  12 11.0    0.000    0.000    2.193    2.681
 pbe_lsd_eval                        12 12.0    2.193    2.681    2.193    2.681
 -------------------------------------------------------------------------------

 The number of warnings for this run is : 1
 
 -------------------------------------------------------------------------------
  **** **** ******  **  PROGRAM ENDED AT                 2019-08-02 13:31:52.442
 ***** ** ***  *** **   PROGRAM RAN ON            cpn-p28-06.cbls.ccr.buffalo.ed
 **    ****   ******    PROGRAM RAN BY                                  pavankum
 ***** **    ** ** **   PROGRAM PROCESS ID                                 23621
  **** **  *******  **  PROGRAM STOPPED IN /projects/academic/mdupuis2/pavan/VAB
                                           _calculation/results_for_paper/7.TiO2
                                           _pbe_plus_U10/point_0.7
