 DBCSR| Multiplication driver                                               BLAS
 DBCSR| Multrec recursion limit                                              512
 DBCSR| Multiplication stack size                                           1000
 DBCSR| Maximum elements for images                                    UNLIMITED
 DBCSR| Multiplicative factor virtual images                                   1
 DBCSR| Multiplication size stacks                                             3
 DBCSR| Number of 3D layers                                               SINGLE
 DBCSR| Use MPI memory allocation                                              T
 DBCSR| Use RMA algorithm                                                      F
 DBCSR| Use Communication thread                                               T
 DBCSR| Communication thread load                                             87


  **** **** ******  **  PROGRAM STARTED AT               2019-08-07 08:34:32.891
 ***** ** ***  *** **   PROGRAM STARTED ON        cpn-u27-03.cbls.ccr.buffalo.ed
 **    ****   ******    PROGRAM STARTED BY                              pavankum
 ***** **    ** ** **   PROGRAM PROCESS ID                                 39777
  **** **  *******  **  PROGRAM STARTED IN /projects/academic/mdupuis2/pavan/VAB
                                           _calculation/results_for_paper/3.1D_F
                                           e_7units/blyp_plusU9/point_0.4

 CP2K| version string:                                          CP2K version 6.1
 CP2K| source code revision number:                                    svn:18464
 CP2K| cp2kflags: libint fftw3 libxc parallel mpi3 scalapack libderiv_max_am1=5 
 CP2K|            libint_max_am=6
 CP2K| is freely available from                            https://www.cp2k.org/
 CP2K| Program compiled at                          Fri Nov 30 14:17:09 EST 2018
 CP2K| Program compiled on                       srv-p22-12.cbls.ccr.buffalo.edu
 CP2K| Program compiled for                                                local
 CP2K| Data directory path    /projects/academic/mdupuis2/pavan/cp2k/cp2k-6.1/da
 CP2K| Input file name                                                 input.inp

 GLOBAL| Force Environment number                                              1
 GLOBAL| Basis set file name            /projects/academic/mdupuis2/pavan/BASIS_
 GLOBAL| Potential file name            /projects/academic/mdupuis2/pavan/POTENT
 GLOBAL| MM Potential file name                                     MM_POTENTIAL
 GLOBAL| Coordinate file name                             intermediate_point.xyz
 GLOBAL| Method name                                                        CP2K
 GLOBAL| Project name                                                      p_fe_
 GLOBAL| Preferred FFT library                                             FFTW3
 GLOBAL| Preferred diagonalization lib.                                       SL
 GLOBAL| Run type                                                         ENERGY
 GLOBAL| All-to-all communication in single precision                          F
 GLOBAL| FFTs using library dependent lengths                                  T
 GLOBAL| Global print level                                               MEDIUM
 GLOBAL| Total number of message passing processes                            48
 GLOBAL| Number of threads for this process                                    1
 GLOBAL| This output is from process                                           0
 GLOBAL| CPU model name :  Intel(R) Xeon(R) Gold 6126 CPU @ 2.60GHz

 MEMORY| system memory details [Kb]
 MEMORY|                        rank 0           min           max       average
 MEMORY| MemTotal            196307064     196307064     196307064     196307064
 MEMORY| MemFree             188349832     188349832     188552396     188451114
 MEMORY| Buffers                500472        500472        502472        501472
 MEMORY| Cached                1311452       1247520       1311452       1279486
 MEMORY| Slab                   619116        617544        619116        618330
 MEMORY| SReclaimable           290000        290000        292116        291058
 MEMORY| MemLikelyFree       190451756     190451756     190594504     190523130


 *** Fundamental physical constants (SI units) ***

 *** Literature: B. J. Mohr and B. N. Taylor,
 ***             CODATA recommended values of the fundamental physical
 ***             constants: 2006, Web Version 5.1
 ***             http://physics.nist.gov/constants

 Speed of light in vacuum [m/s]                             2.99792458000000E+08
 Magnetic constant or permeability of vacuum [N/A**2]       1.25663706143592E-06
 Electric constant or permittivity of vacuum [F/m]          8.85418781762039E-12
 Planck constant (h) [J*s]                                  6.62606896000000E-34
 Planck constant (h-bar) [J*s]                              1.05457162825177E-34
 Elementary charge [C]                                      1.60217648700000E-19
 Electron mass [kg]                                         9.10938215000000E-31
 Electron g factor [ ]                                     -2.00231930436220E+00
 Proton mass [kg]                                           1.67262163700000E-27
 Fine-structure constant                                    7.29735253760000E-03
 Rydberg constant [1/m]                                     1.09737315685270E+07
 Avogadro constant [1/mol]                                  6.02214179000000E+23
 Boltzmann constant [J/K]                                   1.38065040000000E-23
 Atomic mass unit [kg]                                      1.66053878200000E-27
 Bohr radius [m]                                            5.29177208590000E-11

 *** Conversion factors ***

 [u] -> [a.u.]                                              1.82288848426455E+03
 [Angstrom] -> [Bohr] = [a.u.]                              1.88972613288564E+00
 [a.u.] = [Bohr] -> [Angstrom]                              5.29177208590000E-01
 [a.u.] -> [s]                                              2.41888432650478E-17
 [a.u.] -> [fs]                                             2.41888432650478E-02
 [a.u.] -> [J]                                              4.35974393937059E-18
 [a.u.] -> [N]                                              8.23872205491840E-08
 [a.u.] -> [K]                                              3.15774647902944E+05
 [a.u.] -> [kJ/mol]                                         2.62549961709828E+03
 [a.u.] -> [kcal/mol]                                       6.27509468713739E+02
 [a.u.] -> [Pa]                                             2.94210107994716E+13
 [a.u.] -> [bar]                                            2.94210107994716E+08
 [a.u.] -> [atm]                                            2.90362800883016E+08
 [a.u.] -> [eV]                                             2.72113838565563E+01
 [a.u.] -> [Hz]                                             6.57968392072181E+15
 [a.u.] -> [1/cm] (wave numbers)                            2.19474631370540E+05
 [a.u./Bohr**2] -> [1/cm]                                   5.14048714338585E+03
 

 CELL_TOP| Volume [angstrom^3]:                                        26196.625
 CELL_TOP| Vector a [angstrom    21.385     0.000     0.000    |a| =      21.385
 CELL_TOP| Vector b [angstrom     0.000    35.000     0.000    |b| =      35.000
 CELL_TOP| Vector c [angstrom     0.000     0.000    35.000    |c| =      35.000
 CELL_TOP| Angle (b,c), alpha [degree]:                                   90.000
 CELL_TOP| Angle (a,c), beta  [degree]:                                   90.000
 CELL_TOP| Angle (a,b), gamma [degree]:                                   90.000
 CELL_TOP| Numerically orthorhombic:                                         YES

 CELL| Volume [angstrom^3]:                                            26196.625
 CELL| Vector a [angstrom]:      21.385     0.000     0.000    |a| =      21.385
 CELL| Vector b [angstrom]:       0.000    35.000     0.000    |b| =      35.000
 CELL| Vector c [angstrom]:       0.000     0.000    35.000    |c| =      35.000
 CELL| Angle (b,c), alpha [degree]:                                       90.000
 CELL| Angle (a,c), beta  [degree]:                                       90.000
 CELL| Angle (a,b), gamma [degree]:                                       90.000
 CELL| Numerically orthorhombic:                                             YES

 CELL_REF| Volume [angstrom^3]:                                        26196.625
 CELL_REF| Vector a [angstrom    21.385     0.000     0.000    |a| =      21.385
 CELL_REF| Vector b [angstrom     0.000    35.000     0.000    |b| =      35.000
 CELL_REF| Vector c [angstrom     0.000     0.000    35.000    |c| =      35.000
 CELL_REF| Angle (b,c), alpha [degree]:                                   90.000
 CELL_REF| Angle (a,c), beta  [degree]:                                   90.000
 CELL_REF| Angle (a,b), gamma [degree]:                                   90.000
 CELL_REF| Numerically orthorhombic:                                         YES

 *******************************************************************************
 *******************************************************************************
 **                                                                           **
 **     #####                         ##              ##                      **
 **    ##   ##            ##          ##              ##                      **
 **   ##     ##                       ##            ######                    **
 **   ##     ##  ##   ##  ##   #####  ##  ##   ####   ##    #####    #####    **
 **   ##     ##  ##   ##  ##  ##      ## ##   ##      ##   ##   ##  ##   ##   **
 **   ##  ## ##  ##   ##  ##  ##      ####     ###    ##   ######   ######    **
 **    ##  ###   ##   ##  ##  ##      ## ##      ##   ##   ##       ##        **
 **     #######   #####   ##   #####  ##  ##  ####    ##    #####   ##        **
 **           ##                                                    ##        **
 **                                                                           **
 **                                                ... make the atoms dance   **
 **                                                                           **
 **            Copyright (C) by CP2K developers group (2000 - 2018)           **
 **                                                                           **
 *******************************************************************************

 DFT| Spin unrestricted (spin-polarized) Kohn-Sham calculation               UKS
 DFT| Multiplicity                                                            35
 DFT| Number of spin states                                                    2
 DFT| Charge                                                                   6
 DFT| Self-interaction correction (SIC)                                       NO
 DFT| Cutoffs: density                                              1.000000E-10
 DFT|          gradient                                             1.000000E-10
 DFT|          tau                                                  1.000000E-10
 DFT|          cutoff_smoothing_range                               0.000000E+00
 DFT| XC density smoothing                                                  NONE
 DFT| XC derivatives                                                          PW

 DFT+U| Method                                                          MULLIKEN
 DFT+U| Check atomic kind information for details
 FUNCTIONAL| ROUTINE=NEW
 FUNCTIONAL| BECKE88:
 FUNCTIONAL| A. Becke, Phys. Rev. A 38, 3098 (1988) {LSD version}               
 FUNCTIONAL| LYP:
 FUNCTIONAL| C. Lee, W. Yang, R.G. Parr, Phys. Rev. B, 37, 785 (1988) {LSD versi
 FUNCTIONAL| on}                                                                

 QS| Method:                                                                 GPW
 QS| Density plane wave grid type                        NON-SPHERICAL FULLSPACE
 QS| Number of grid levels:                                                   10
 QS| Density cutoff [a.u.]:                                                325.0
 QS| Multi grid cutoff [a.u.]: 1) grid level                               325.0
 QS|                           2) grid level                               108.3
 QS|                           3) grid level                                36.1
 QS|                           4) grid level                                12.0
 QS|                           5) grid level                                 4.0
 QS|                           6) grid level                                 1.3
 QS|                           7) grid level                                 0.4
 QS|                           8) grid level                                 0.1
 QS|                           9) grid level                                 0.0
 QS|                          10) grid level                                 0.0
 QS| Grid level progression factor:                                          3.0
 QS| Relative density cutoff [a.u.]:                                        30.0
 QS| Consistent realspace mapping and integration 
 QS| Interaction thresholds: eps_pgf_orb:                                1.0E-10
 QS|                         eps_filter_matrix:                          0.0E+00
 QS|                         eps_core_charge:                            1.0E-14
 QS|                         eps_rho_gspace:                             1.0E-12
 QS|                         eps_rho_rspace:                             1.0E-12
 QS|                         eps_gvg_rspace:                             1.0E-06
 QS|                         eps_ppl:                                    1.0E-02
 QS|                         eps_ppnl:                                   1.0E-08


 ATOMIC KIND INFORMATION

  1. Atomic kind: Fe                                    Number of atoms:       7

     Orbital Basis Set                                                   mod-DZV

       Number of orbital shell sets:                                           1
       Number of orbital shells:                                               7
       Number of primitive Cartesian functions:                                6
       Number of Cartesian basis functions:                                   21
       Number of spherical basis functions:                                   19
       Norm type:                                                              2

       Normalised Cartesian orbitals:

                        Set   Shell   Orbital            Exponent    Coefficient

                          1       1    2s                8.424366      -0.545589
                                                         4.825220      -0.832336
                                                         2.198939       0.958990
                                                         0.891661       0.416271
                                                         0.316231       0.012631
                                                         0.103474      -0.013505

                          1       2    3s                8.424366      -0.106056
                                                         4.825220      -0.104587
                                                         2.198939       0.052318
                                                         0.891661      -0.169042
                                                         0.316231       0.061854
                                                         0.103474       0.122891

                          1       3    4s                8.424366      -0.333477
                                                         4.825220      -0.289267
                                                         2.198939      -0.125861
                                                         0.891661      -1.004000
                                                         0.316231       0.780774
                                                         0.103474      -0.187846

                          1       4    3px               8.424366      -1.658234
                                                         4.825220       1.618912
                                                         2.198939       1.969078
                                                         0.891661       0.523780
                                                         0.316231       0.024574
                                                         0.103474      -0.000798
                          1       4    3py               8.424366      -1.658234
                                                         4.825220       1.618912
                                                         2.198939       1.969078
                                                         0.891661       0.523780
                                                         0.316231       0.024574
                                                         0.103474      -0.000798
                          1       4    3pz               8.424366      -1.658234
                                                         4.825220       1.618912
                                                         2.198939       1.969078
                                                         0.891661       0.523780
                                                         0.316231       0.024574
                                                         0.103474      -0.000798

                          1       5    4px               8.424366      -0.105249
                                                         4.825220      -0.126123
                                                         2.198939      -0.349657
                                                         0.891661      -0.133470
                                                         0.316231       0.170554
                                                         0.103474       0.054381
                          1       5    4py               8.424366      -0.105249
                                                         4.825220      -0.126123
                                                         2.198939      -0.349657
                                                         0.891661      -0.133470
                                                         0.316231       0.170554
                                                         0.103474       0.054381
                          1       5    4pz               8.424366      -0.105249
                                                         4.825220      -0.126123
                                                         2.198939      -0.349657
                                                         0.891661      -0.133470
                                                         0.316231       0.170554
                                                         0.103474       0.054381

                          1       6    4dx2              8.424366       7.918298
                                                         4.825220       5.112663
                                                         2.198939       2.118663
                                                         0.891661       0.465004
                                                         0.316231       0.065856
                                                         0.103474       0.002769
                          1       6    4dxy              8.424366      13.714895
                                                         4.825220       8.855393
                                                         2.198939       3.669632
                                                         0.891661       0.805411
                                                         0.316231       0.114066
                                                         0.103474       0.004796
                          1       6    4dxz              8.424366      13.714895
                                                         4.825220       8.855393
                                                         2.198939       3.669632
                                                         0.891661       0.805411
                                                         0.316231       0.114066
                                                         0.103474       0.004796
                          1       6    4dy2              8.424366       7.918298
                                                         4.825220       5.112663
                                                         2.198939       2.118663
                                                         0.891661       0.465004
                                                         0.316231       0.065856
                                                         0.103474       0.002769
                          1       6    4dyz              8.424366      13.714895
                                                         4.825220       8.855393
                                                         2.198939       3.669632
                                                         0.891661       0.805411
                                                         0.316231       0.114066
                                                         0.103474       0.004796
                          1       6    4dz2              8.424366       7.918298
                                                         4.825220       5.112663
                                                         2.198939       2.118663
                                                         0.891661       0.465004
                                                         0.316231       0.065856
                                                         0.103474       0.002769

                          1       7    5dx2              8.424366      -4.223614
                                                         4.825220      -1.970584
                                                         2.198939      -1.543490
                                                         0.891661      -0.041381
                                                         0.316231       0.082821
                                                         0.103474       0.021964
                          1       7    5dxy              8.424366      -7.315513
                                                         4.825220      -3.413151
                                                         2.198939      -2.673404
                                                         0.891661      -0.071673
                                                         0.316231       0.143450
                                                         0.103474       0.038042
                          1       7    5dxz              8.424366      -7.315513
                                                         4.825220      -3.413151
                                                         2.198939      -2.673404
                                                         0.891661      -0.071673
                                                         0.316231       0.143450
                                                         0.103474       0.038042
                          1       7    5dy2              8.424366      -4.223614
                                                         4.825220      -1.970584
                                                         2.198939      -1.543490
                                                         0.891661      -0.041381
                                                         0.316231       0.082821
                                                         0.103474       0.021964
                          1       7    5dyz              8.424366      -7.315513
                                                         4.825220      -3.413151
                                                         2.198939      -2.673404
                                                         0.891661      -0.071673
                                                         0.316231       0.143450
                                                         0.103474       0.038042
                          1       7    5dz2              8.424366      -4.223614
                                                         4.825220      -1.970584
                                                         2.198939      -1.543490
                                                         0.891661      -0.041381
                                                         0.316231       0.082821
                                                         0.103474       0.021964

     GTH Potential information for                                  GTH-BLYP-q16

       Description:                       Goedecker-Teter-Hutter pseudopotential
                                           Goedecker et al., PRB 54, 1703 (1996)
                                          Hartwigsen et al., PRB 58, 3641 (1998)
                                                      Krack, TCA 114, 145 (2005)

       Gaussian exponent of the core charge distribution:               3.858025
       Electronic configuration (s p d ...):                           4   6   6

       Parameters of the local part of the GTH pseudopotential:

                          rloc        C1          C2          C3          C4
                        0.360000    7.011025   -0.222747

       Parameters of the non-local part of the GTH pseudopotential:

                   l      r(l)      h(i,j,l)

                   0    0.276205    0.611496    7.992357
                                    7.992357  -10.318089
                   1    0.247130   -8.710556    8.684169
                                    8.684169  -10.275248
                   2    0.223534  -12.411504

     A DFT+U correction is applied to atoms of this atomic kind:
       Angular quantum momentum number L:                                      2
       U(eff) = (U - J) value in [eV]:                                     9.000

  2. Atomic kind: O                                     Number of atoms:      28

     Orbital Basis Set                                                   mod-DZV

       Number of orbital shell sets:                                           1
       Number of orbital shells:                                               4
       Number of primitive Cartesian functions:                                5
       Number of Cartesian basis functions:                                    8
       Number of spherical basis functions:                                    8
       Norm type:                                                              2

       Normalised Cartesian orbitals:

                        Set   Shell   Orbital            Exponent    Coefficient

                          1       1    2s               10.389228       0.396646
                                                         3.849621       0.208811
                                                         1.388401      -0.301641
                                                         0.496955      -0.274061
                                                         0.162492      -0.033677

                          1       2    3s               10.389228       0.303673
                                                         3.849621       0.240943
                                                         1.388401      -0.313066
                                                         0.496955      -0.043055
                                                         0.162492       0.213991

                          1       3    3px              10.389228      -1.530415
                                                         3.849621      -1.371928
                                                         1.388401      -0.761951
                                                         0.496955      -0.253695
                                                         0.162492      -0.035541
                          1       3    3py              10.389228      -1.530415
                                                         3.849621      -1.371928
                                                         1.388401      -0.761951
                                                         0.496955      -0.253695
                                                         0.162492      -0.035541
                          1       3    3pz              10.389228      -1.530415
                                                         3.849621      -1.371928
                                                         1.388401      -0.761951
                                                         0.496955      -0.253695
                                                         0.162492      -0.035541

                          1       4    4px              10.389228      -0.565392
                                                         3.849621      -0.038231
                                                         1.388401      -0.382373
                                                         0.496955       0.179070
                                                         0.162492       0.122714
                          1       4    4py              10.389228      -0.565392
                                                         3.849621      -0.038231
                                                         1.388401      -0.382373
                                                         0.496955       0.179070
                                                         0.162492       0.122714
                          1       4    4pz              10.389228      -0.565392
                                                         3.849621      -0.038231
                                                         1.388401      -0.382373
                                                         0.496955       0.179070
                                                         0.162492       0.122714

     GTH Potential information for                                   GTH-BLYP-q6

       Description:                       Goedecker-Teter-Hutter pseudopotential
                                           Goedecker et al., PRB 54, 1703 (1996)
                                          Hartwigsen et al., PRB 58, 3641 (1998)
                                                      Krack, TCA 114, 145 (2005)

       Gaussian exponent of the core charge distribution:               8.438331
       Electronic configuration (s p d ...):                               2   4

       Parameters of the local part of the GTH pseudopotential:

                          rloc        C1          C2          C3          C4
                        0.243420  -16.991892    2.566142

       Parameters of the non-local part of the GTH pseudopotential:

                   l      r(l)      h(i,j,l)

                   0    0.220831   18.388851
                   1    0.217201

  3. Atomic kind: H                                     Number of atoms:      42

     Orbital Basis Set                                                   mod-DZV

       Number of orbital shell sets:                                           1
       Number of orbital shells:                                               2
       Number of primitive Cartesian functions:                                5
       Number of Cartesian basis functions:                                    2
       Number of spherical basis functions:                                    2
       Norm type:                                                              2

       Normalised Cartesian orbitals:

                        Set   Shell   Orbital            Exponent    Coefficient

                          1       1    2s               10.068468      -0.133023
                                                         2.680223      -0.177618
                                                         0.791502      -0.258419
                                                         0.239116      -0.107525
                                                         0.082193      -0.014019

                          1       2    3s               10.068468       0.344673
                                                         2.680223       1.819821
                                                         0.791502      -0.999069
                                                         0.239116       0.017430
                                                         0.082193       0.082660

     GTH Potential information for                                   GTH-BLYP-q1

       Description:                       Goedecker-Teter-Hutter pseudopotential
                                           Goedecker et al., PRB 54, 1703 (1996)
                                          Hartwigsen et al., PRB 58, 3641 (1998)
                                                      Krack, TCA 114, 145 (2005)

       Gaussian exponent of the core charge distribution:              12.500000
       Electronic configuration (s p d ...):                                   1

       Parameters of the local part of the GTH pseudopotential:

                          rloc        C1          C2          C3          C4
                        0.200000   -4.195961    0.730498


 MOLECULE KIND INFORMATION


 All atoms are their own molecule, skipping detailed information


 TOTAL NUMBERS AND MAXIMUM NUMBERS

  Total number of            - Atomic kinds:                                   3
                             - Atoms:                                         77
                             - Shell sets:                                    77
                             - Shells:                                       245
                             - Primitive Cartesian functions:                392
                             - Cartesian basis functions:                    455
                             - Spherical basis functions:                    441

  Maximum angular momentum of- Orbital basis functions:                        2
                             - Local part of the GTH pseudopotential:          2
                             - Non-local part of the GTH pseudopotential:      3


 MODULE QUICKSTEP:  ATOMIC COORDINATES IN angstrom

  Atom  Kind  Element       X           Y           Z          Z(eff)       Mass

       1     1 Fe  26   18.339189   -0.000034   -0.000301     16.00      55.8450
       2     1 Fe  26   15.282613    0.000075    0.001413     16.00      55.8450
       3     1 Fe  26   12.205441   -0.000181    0.000190     16.00      55.8450
       4     1 Fe  26    9.150805    0.005860    0.000370     16.00      55.8450
       5     1 Fe  26    6.136408    0.008532    0.000039     16.00      55.8450
       6     1 Fe  26    3.093580   -0.000121   -0.000481     16.00      55.8450
       7     1 Fe  26    0.014968   -0.000261    0.000151     16.00      55.8450
       8     2 O    8   18.317267    0.006504    2.077079      6.00      15.9994
       9     2 O    8   18.315925   -0.006666   -2.078051      6.00      15.9994
      10     2 O    8   19.859867   -1.210578    0.004389      6.00      15.9994
      11     2 O    8   19.859812    1.210324   -0.004618      6.00      15.9994
      12     2 O    8   15.287438    0.007056    2.087812      6.00      15.9994
      13     2 O    8   15.276759   -0.006569   -2.085567      6.00      15.9994
      14     2 O    8   16.815166   -1.211572    0.005375      6.00      15.9994
      15     2 O    8   16.815268    1.211523   -0.005743      6.00      15.9994
      16     2 O    8   12.250703    0.028358    2.105832      6.00      15.9994
      17     2 O    8   12.250912   -0.028885   -2.104459      6.00      15.9994
      18     2 O    8   13.772307   -1.207762    0.017063      6.00      15.9994
      19     2 O    8   13.772947    1.207919   -0.007944      6.00      15.9994
      20     2 O    8    9.205954   -0.004788    2.139685      6.00      15.9994
      21     2 O    8    9.206263    0.026896   -2.139053      6.00      15.9994
      22     2 O    8   10.759197   -1.227942    0.009028      6.00      15.9994
      23     2 O    8   10.763982    1.230912   -0.009289      6.00      15.9994
      24     2 O    8    6.100057    0.025780    2.148717      6.00      15.9994
      25     2 O    8    6.100405    0.009630   -2.149197      6.00      15.9994
      26     2 O    8    7.668926   -1.259038   -0.004895      6.00      15.9994
      27     2 O    8    7.670783    1.266938    0.005225      6.00      15.9994
      28     2 O    8    3.018124   -0.029902    2.107147      6.00      15.9994
      29     2 O    8    3.017921    0.029103   -2.107851      6.00      15.9994
      30     2 O    8    4.518062   -1.237856   -0.016621      6.00      15.9994
      31     2 O    8    4.511560    1.242315    0.014931      6.00      15.9994
      32     2 O    8   -0.023979    0.004011    2.089743      6.00      15.9994
      33     2 O    8   -0.023966   -0.004491   -2.090404      6.00      15.9994
      34     2 O    8    1.516973   -1.207193   -0.014428      6.00      15.9994
      35     2 O    8    1.516280    1.206751    0.014139      6.00      15.9994
      36     3 H    1   18.331346   -0.819944   -2.640468      1.00       1.0079
      37     3 H    1   18.317562    0.804282   -2.644486      1.00       1.0079
      38     3 H    1   18.314723   -0.804489    2.643095      1.00       1.0079
      39     3 H    1   18.330121    0.819630    2.639188      1.00       1.0079
      40     3 H    1   19.866044   -2.198638    0.006216      1.00       1.0079
      41     3 H    1   19.866171    2.198361   -0.006600      1.00       1.0079
      42     3 H    1   15.151183   -0.818367   -2.639728      1.00       1.0079
      43     3 H    1   15.143641    0.804386   -2.636991      1.00       1.0079
      44     3 H    1   15.152607   -0.803443    2.639122      1.00       1.0079
      45     3 H    1   15.156684    0.819165    2.640140      1.00       1.0079
      46     3 H    1   16.809703   -2.199596    0.005213      1.00       1.0079
      47     3 H    1   16.809822    2.199546   -0.007598      1.00       1.0079
      48     3 H    1   12.045585   -0.845716   -2.627936      1.00       1.0079
      49     3 H    1   12.045862    0.775665   -2.646870      1.00       1.0079
      50     3 H    1   12.053892   -0.777497    2.649448      1.00       1.0079
      51     3 H    1   12.039125    0.843737    2.628986      1.00       1.0079
      52     3 H    1   13.751367   -2.195318    0.017555      1.00       1.0079
      53     3 H    1   13.751871    2.195446   -0.009073      1.00       1.0079
      54     3 H    1    9.067509   -0.776765   -2.691445      1.00       1.0079
      55     3 H    1    9.082435    0.847409   -2.672616      1.00       1.0079
      56     3 H    1    9.088950   -0.824856    2.676326      1.00       1.0079
      57     3 H    1    9.061434    0.798957    2.689276      1.00       1.0079
      58     3 H    1   10.727616   -2.213992    0.011785      1.00       1.0079
      59     3 H    1   10.737008    2.217080   -0.010036      1.00       1.0079
      60     3 H    1    6.160262   -0.807095   -2.699885      1.00       1.0079
      61     3 H    1    6.178484    0.817970   -2.705791      1.00       1.0079
      62     3 H    1    6.175201   -0.777910    2.712928      1.00       1.0079
      63     3 H    1    6.162608    0.847263    2.691552      1.00       1.0079
      64     3 H    1    7.663724   -2.243976   -0.007018      1.00       1.0079
      65     3 H    1    7.667711    2.252224    0.006937      1.00       1.0079
      66     3 H    1    3.203467   -0.776718   -2.655185      1.00       1.0079
      67     3 H    1    3.205349    0.846783   -2.636662      1.00       1.0079
      68     3 H    1    3.198424   -0.848568    2.636894      1.00       1.0079
      69     3 H    1    3.208918    0.774834    2.654007      1.00       1.0079
      70     3 H    1    4.548001   -2.223593   -0.019643      1.00       1.0079
      71     3 H    1    4.534994    2.228263    0.017727      1.00       1.0079
      72     3 H    1    0.122861   -0.816639   -2.636291      1.00       1.0079
      73     3 H    1    0.102470    0.805745   -2.647073      1.00       1.0079
      74     3 H    1    0.096600   -0.806964    2.646688      1.00       1.0079
      75     3 H    1    0.124682    0.815199    2.635981      1.00       1.0079
      76     3 H    1    1.541086   -2.194511   -0.012866      1.00       1.0079
      77     3 H    1    1.540134    2.194050    0.012820      1.00       1.0079




 SCF PARAMETERS         Density guess:                                   RESTART
                        --------------------------------------------------------
                        max_scf:                                            1000
                        max_scf_history:                                       0
                        max_diis:                                              4
                        --------------------------------------------------------
                        eps_scf:                                        1.00E-06
                        eps_scf_history:                                0.00E+00
                        eps_diis:                                       1.00E-01
                        eps_eigval:                                     1.00E-05
                        --------------------------------------------------------
                        level_shift [a.u.]:                                 0.00
                        --------------------------------------------------------
                        Outer loop SCF in use 
                        No variables optimised in outer loop
                        eps_scf                                         1.00E-06
                        max_scf                                              500
                        No outer loop optimization
                        step_size                                       5.00E-01

 PW_GRID| Information for grid number                                          1
 PW_GRID| Grid distributed over                                    48 processors
 PW_GRID| Real space group dimensions                                    48    1
 PW_GRID| the grid is blocked:                                                NO
 PW_GRID| Cutoff [a.u.]                                                    325.0
 PW_GRID| spherical cutoff:                                                   NO
 PW_GRID|   Bounds   1           -165     164                Points:         330
 PW_GRID|   Bounds   2           -270     269                Points:         540
 PW_GRID|   Bounds   3           -270     269                Points:         540
 PW_GRID| Volume element (a.u.^3)  0.1837E-02     Volume (a.u.^3)    176783.5904
 PW_GRID| Grid span                                                    FULLSPACE
 PW_GRID|   Distribution                         Average         Max         Min
 PW_GRID|   G-Vectors                          2004750.0     2004750     2004750
 PW_GRID|   G-Rays                                6075.0        6075        6075
 PW_GRID|   Real Space Points                  2004750.0     2041200     1749600

 PW_GRID| Information for grid number                                          2
 PW_GRID| Grid distributed over                                    48 processors
 PW_GRID| Real space group dimensions                                    48    1
 PW_GRID| the grid is blocked:                                                NO
 PW_GRID| Cutoff [a.u.]                                                    108.3
 PW_GRID| spherical cutoff:                                                   NO
 PW_GRID|   Bounds   1            -94      94                Points:         189
 PW_GRID|   Bounds   2           -157     157                Points:         315
 PW_GRID|   Bounds   3           -157     157                Points:         315
 PW_GRID| Volume element (a.u.^3)  0.9427E-02     Volume (a.u.^3)    176783.5904
 PW_GRID| Grid span                                                    FULLSPACE
 PW_GRID|   Distribution                         Average         Max         Min
 PW_GRID|   G-Vectors                           390698.4      391230      390285
 PW_GRID|   G-Rays                                2067.2        2070        2065
 PW_GRID|   Real Space Points                   390698.4      396900      297675

 PW_GRID| Information for grid number                                          3
 PW_GRID| Grid distributed over                                    48 processors
 PW_GRID| Real space group dimensions                                    48    1
 PW_GRID| the grid is blocked:                                                NO
 PW_GRID| Cutoff [a.u.]                                                     36.1
 PW_GRID| spherical cutoff:                                                   NO
 PW_GRID|   Bounds   1            -55      54                Points:         110
 PW_GRID|   Bounds   2            -90      89                Points:         180
 PW_GRID|   Bounds   3            -90      89                Points:         180
 PW_GRID| Volume element (a.u.^3)  0.4960E-01     Volume (a.u.^3)    176783.5904
 PW_GRID| Grid span                                                    FULLSPACE
 PW_GRID|   Distribution                         Average         Max         Min
 PW_GRID|   G-Vectors                            74250.0       74360       74140
 PW_GRID|   G-Rays                                 675.0         676         674
 PW_GRID|   Real Space Points                    74250.0       97200       64800

 PW_GRID| Information for grid number                                          4
 PW_GRID| Grid distributed over                                    48 processors
 PW_GRID| Real space group dimensions                                    48    1
 PW_GRID| the grid is blocked:                                                NO
 PW_GRID| Cutoff [a.u.]                                                     12.0
 PW_GRID| spherical cutoff:                                                   NO
 PW_GRID|   Bounds   1            -31      31                Points:          63
 PW_GRID|   Bounds   2            -52      52                Points:         105
 PW_GRID|   Bounds   3            -52      52                Points:         105
 PW_GRID| Volume element (a.u.^3)  0.2545         Volume (a.u.^3)    176783.5904
 PW_GRID| Grid span                                                    FULLSPACE
 PW_GRID|   Distribution                         Average         Max         Min
 PW_GRID|   G-Vectors                            14470.3       14553       14427
 PW_GRID|   G-Rays                                 229.7         231         229
 PW_GRID|   Real Space Points                    14470.3       22050       11025

 PW_GRID| Information for grid number                                          5
 PW_GRID| Grid distributed over                                    48 processors
 PW_GRID| Real space group dimensions                                     6    8
 PW_GRID| the grid is blocked:                                                NO
 PW_GRID| Cutoff [a.u.]                                                      4.0
 PW_GRID| spherical cutoff:                                                   NO
 PW_GRID|   Bounds   1            -20      19                Points:          40
 PW_GRID|   Bounds   2            -30      29                Points:          60
 PW_GRID|   Bounds   3            -30      29                Points:          60
 PW_GRID| Volume element (a.u.^3)   1.228         Volume (a.u.^3)    176783.5904
 PW_GRID| Grid span                                                    FULLSPACE
 PW_GRID|   Distribution                         Average         Max         Min
 PW_GRID|   G-Vectors                             3000.0        3040        2960
 PW_GRID|   G-Rays                                  75.0          76          74
 PW_GRID|   Real Space Points                     3000.0        3360        2520

 PW_GRID| Information for grid number                                          6
 PW_GRID| Grid distributed over                                    48 processors
 PW_GRID| Real space group dimensions                                     6    8
 PW_GRID| the grid is blocked:                                                NO
 PW_GRID| Cutoff [a.u.]                                                      1.3
 PW_GRID| spherical cutoff:                                                   NO
 PW_GRID|   Bounds   1            -10      10                Points:          21
 PW_GRID|   Bounds   2            -17      17                Points:          35
 PW_GRID|   Bounds   3            -17      17                Points:          35
 PW_GRID| Volume element (a.u.^3)   6.872         Volume (a.u.^3)    176783.5904
 PW_GRID| Grid span                                                    FULLSPACE
 PW_GRID|   Distribution                         Average         Max         Min
 PW_GRID|   G-Vectors                              535.9         567         504
 PW_GRID|   G-Rays                                  25.5          27          24
 PW_GRID|   Real Space Points                      535.9         700         420

 PW_GRID| Information for grid number                                          7
 PW_GRID| Grid distributed over                                    48 processors
 PW_GRID| Real space group dimensions                                     6    8
 PW_GRID| the grid is blocked:                                                NO
 PW_GRID| Cutoff [a.u.]                                                      0.4
 PW_GRID| spherical cutoff:                                                   NO
 PW_GRID|   Bounds   1             -7       6                Points:          14
 PW_GRID|   Bounds   2            -10       9                Points:          20
 PW_GRID|   Bounds   3            -10       9                Points:          20
 PW_GRID| Volume element (a.u.^3)   31.57         Volume (a.u.^3)    176783.5904
 PW_GRID| Grid span                                                    FULLSPACE
 PW_GRID|   Distribution                         Average         Max         Min
 PW_GRID|   G-Vectors                              116.7         140          98
 PW_GRID|   G-Rays                                   8.3          10           7
 PW_GRID|   Real Space Points                      116.7         180          80

 PW_GRID| Information for grid number                                          8
 PW_GRID| Grid distributed over                                    48 processors
 PW_GRID| Real space group dimensions                                     6    8
 PW_GRID| the grid is blocked:                                                NO
 PW_GRID| Cutoff [a.u.]                                                      0.1
 PW_GRID| spherical cutoff:                                                   NO
 PW_GRID|   Bounds   1             -3       3                Points:           7
 PW_GRID|   Bounds   2             -5       5                Points:          11
 PW_GRID|   Bounds   3             -5       5                Points:          11
 PW_GRID| Volume element (a.u.^3)   208.7         Volume (a.u.^3)    176783.5904
 PW_GRID| Grid span                                                    FULLSPACE
 PW_GRID|   Distribution                         Average         Max         Min
 PW_GRID|   G-Vectors                               17.6          28           7
 PW_GRID|   G-Rays                                   2.5           4           1
 PW_GRID|   Real Space Points                       17.6          44          11

 PW_GRID| Information for grid number                                          9
 PW_GRID| Grid distributed over                                    48 processors
 PW_GRID| Real space group dimensions                                     6    8
 PW_GRID| the grid is blocked:                                                NO
 PW_GRID| Cutoff [a.u.]                                                      0.0
 PW_GRID| spherical cutoff:                                                   NO
 PW_GRID|   Bounds   1             -2       2                Points:           5
 PW_GRID|   Bounds   2             -3       3                Points:           7
 PW_GRID|   Bounds   3             -3       3                Points:           7
 PW_GRID| Volume element (a.u.^3)   721.6         Volume (a.u.^3)    176783.5904
 PW_GRID| Grid span                                                    FULLSPACE
 PW_GRID|   Distribution                         Average         Max         Min
 PW_GRID|   G-Vectors                                5.1          10           0
 PW_GRID|   G-Rays                                   1.0           2           0
 PW_GRID|   Real Space Points                        5.1           7           0

 PW_GRID| Information for grid number                                         10
 PW_GRID| Grid distributed over                                    48 processors
 PW_GRID| Real space group dimensions                                     6    8
 PW_GRID| the grid is blocked:                                                NO
 PW_GRID| Cutoff [a.u.]                                                      0.0
 PW_GRID| spherical cutoff:                                                   NO
 PW_GRID|   Bounds   1             -1       1                Points:           3
 PW_GRID|   Bounds   2             -1       1                Points:           3
 PW_GRID|   Bounds   3             -1       1                Points:           3
 PW_GRID| Volume element (a.u.^3)   6548.         Volume (a.u.^3)    176783.5904
 PW_GRID| Grid span                                                    FULLSPACE
 PW_GRID|   Distribution                         Average         Max         Min
 PW_GRID|   G-Vectors                                0.6           3           0
 PW_GRID|   G-Rays                                   0.2           1           0
 PW_GRID|   Real Space Points                        0.6           3           0

 POISSON| Solver                                                        PERIODIC
 POISSON| Periodicity                                                        XYZ

 RS_GRID| Information for grid number                                          1
 RS_GRID|   Bounds   1           -165     164                Points:         330
 RS_GRID|   Bounds   2           -270     269                Points:         540
 RS_GRID|   Bounds   3           -270     269                Points:         540
 RS_GRID| Real space distribution over                                  6 groups
 RS_GRID| Real space distribution along direction                              2
 RS_GRID| Border size                                                         25
 RS_GRID| Real space distribution over                                  8 groups
 RS_GRID| Real space distribution along direction                              3
 RS_GRID| Border size                                                         25
 RS_GRID|   Distribution                         Average         Max         Min
 RS_GRID|   Planes                                 140.0         140         140
 RS_GRID|   Distribution                         Average         Max         Min
 RS_GRID|   Planes                                 117.5         118         117

 RS_GRID| Information for grid number                                          2
 RS_GRID|   Bounds   1            -94      94                Points:         189
 RS_GRID|   Bounds   2           -157     157                Points:         315
 RS_GRID|   Bounds   3           -157     157                Points:         315
 RS_GRID| Real space distribution over                                  6 groups
 RS_GRID| Real space distribution along direction                              2
 RS_GRID| Border size                                                         28
 RS_GRID| Real space distribution over                                  8 groups
 RS_GRID| Real space distribution along direction                              3
 RS_GRID| Border size                                                         28
 RS_GRID|   Distribution                         Average         Max         Min
 RS_GRID|   Planes                                 108.5         109         108
 RS_GRID|   Distribution                         Average         Max         Min
 RS_GRID|   Planes                                  95.4          96          95

 RS_GRID| Information for grid number                                          3
 RS_GRID|   Bounds   1            -55      54                Points:         110
 RS_GRID|   Bounds   2            -90      89                Points:         180
 RS_GRID|   Bounds   3            -90      89                Points:         180
 RS_GRID| Real space fully replicated
 RS_GRID| Group size                                                           1

 RS_GRID| Information for grid number                                          4
 RS_GRID|   Bounds   1            -31      31                Points:          63
 RS_GRID|   Bounds   2            -52      52                Points:         105
 RS_GRID|   Bounds   3            -52      52                Points:         105
 RS_GRID| Real space fully replicated
 RS_GRID| Group size                                                           1

 RS_GRID| Information for grid number                                          5
 RS_GRID|   Bounds   1            -20      19                Points:          40
 RS_GRID|   Bounds   2            -30      29                Points:          60
 RS_GRID|   Bounds   3            -30      29                Points:          60
 RS_GRID| Real space fully replicated
 RS_GRID| Group size                                                           1

 RS_GRID| Information for grid number                                          6
 RS_GRID|   Bounds   1            -10      10                Points:          21
 RS_GRID|   Bounds   2            -17      17                Points:          35
 RS_GRID|   Bounds   3            -17      17                Points:          35
 RS_GRID| Real space fully replicated
 RS_GRID| Group size                                                           1

 RS_GRID| Information for grid number                                          7
 RS_GRID|   Bounds   1             -7       6                Points:          14
 RS_GRID|   Bounds   2            -10       9                Points:          20
 RS_GRID|   Bounds   3            -10       9                Points:          20
 RS_GRID| Real space fully replicated
 RS_GRID| Group size                                                           1

 RS_GRID| Information for grid number                                          8
 RS_GRID|   Bounds   1             -3       3                Points:           7
 RS_GRID|   Bounds   2             -5       5                Points:          11
 RS_GRID|   Bounds   3             -5       5                Points:          11
 RS_GRID| Real space fully replicated
 RS_GRID| Group size                                                           1

 RS_GRID| Information for grid number                                          9
 RS_GRID|   Bounds   1             -2       2                Points:           5
 RS_GRID|   Bounds   2             -3       3                Points:           7
 RS_GRID|   Bounds   3             -3       3                Points:           7
 RS_GRID| Real space fully replicated
 RS_GRID| Group size                                                           1

 RS_GRID| Information for grid number                                         10
 RS_GRID|   Bounds   1             -1       1                Points:           3
 RS_GRID|   Bounds   2             -1       1                Points:           3
 RS_GRID|   Bounds   3             -1       1                Points:           3
 RS_GRID| Real space fully replicated
 RS_GRID| Group size                                                           1

 Spin 1

 Number of electrons:                                                        175
 Number of occupied orbitals:                                                175
 Number of molecular orbitals:                                               175

 Spin 2

 Number of electrons:                                                        141
 Number of occupied orbitals:                                                141
 Number of molecular orbitals:                                               141

 Number of orbital functions:                                                441
 Number of independent orbital functions:                                    441

 Extrapolation method: initial_guess


 SCF WAVEFUNCTION OPTIMIZATION

  ----------------------------------- OT ---------------------------------------
  Minimizer      : CG                  : conjugate gradient
  Preconditioner : FULL_KINETIC        : inversion of T + eS
  Precond_solver : DEFAULT
  Line search    : 2PNT                : 2 energies, one gradient
  stepsize       :    0.15000000                  energy_gap     :    0.20000000
  eps_taylor     :   0.10000E-15                  max_taylor     :             4
  ----------------------------------- OT ---------------------------------------

  Step     Update method      Time    Convergence         Total energy    Change
  ------------------------------------------------------------------------------

 *** WARNING in dft_plus_u.F:1457 :: DFT+U energy contibution is negative ***
 *** possibly due to unphysical Mulliken charges. Check your input, if    ***
 *** this warning persists or try a different method!                     ***

     1 OT CG       0.15E+00    6.4     0.00043694     -1335.5892173830 -1.34E+03

 *** WARNING in dft_plus_u.F:1457 :: DFT+U energy contibution is negative ***
 *** possibly due to unphysical Mulliken charges. Check your input, if    ***
 *** this warning persists or try a different method!                     ***

     2 OT LS       0.60E+00    4.0                    -1335.5928616773

 *** WARNING in dft_plus_u.F:1457 :: DFT+U energy contibution is negative ***
 *** possibly due to unphysical Mulliken charges. Check your input, if    ***
 *** this warning persists or try a different method!                     ***

     3 OT CG       0.60E+00    8.2     0.00022203     -1335.5996387476 -1.04E-02

 *** WARNING in dft_plus_u.F:1457 :: DFT+U energy contibution is negative ***
 *** possibly due to unphysical Mulliken charges. Check your input, if    ***
 *** this warning persists or try a different method!                     ***

     4 OT LS       0.71E+00    3.9                    -1335.6020145848

 *** WARNING in dft_plus_u.F:1457 :: DFT+U energy contibution is negative ***
 *** possibly due to unphysical Mulliken charges. Check your input, if    ***
 *** this warning persists or try a different method!                     ***

     5 OT CG       0.71E+00    8.1     0.00023439     -1335.6020713480 -2.43E-03

 *** WARNING in dft_plus_u.F:1457 :: DFT+U energy contibution is negative ***
 *** possibly due to unphysical Mulliken charges. Check your input, if    ***
 *** this warning persists or try a different method!                     ***

     6 OT LS       0.43E+00    3.9                    -1335.6030666223

 *** WARNING in dft_plus_u.F:1457 :: DFT+U energy contibution is negative ***
 *** possibly due to unphysical Mulliken charges. Check your input, if    ***
 *** this warning persists or try a different method!                     ***

     7 OT CG       0.43E+00    8.1     0.00015042     -1335.6037315629 -1.66E-03

 *** WARNING in dft_plus_u.F:1457 :: DFT+U energy contibution is negative ***
 *** possibly due to unphysical Mulliken charges. Check your input, if    ***
 *** this warning persists or try a different method!                     ***

     8 OT LS       0.31E+00    3.9                    -1335.6041572854

 *** WARNING in dft_plus_u.F:1457 :: DFT+U energy contibution is negative ***
 *** possibly due to unphysical Mulliken charges. Check your input, if    ***
 *** this warning persists or try a different method!                     ***

     9 OT CG       0.31E+00    7.8     0.00009603     -1335.6042279750 -4.96E-04

 *** WARNING in dft_plus_u.F:1457 :: DFT+U energy contibution is negative ***
 *** possibly due to unphysical Mulliken charges. Check your input, if    ***
 *** this warning persists or try a different method!                     ***

    10 OT LS       0.41E+00    4.0                    -1335.6044776280

 *** WARNING in dft_plus_u.F:1457 :: DFT+U energy contibution is negative ***
 *** possibly due to unphysical Mulliken charges. Check your input, if    ***
 *** this warning persists or try a different method!                     ***

    11 OT CG       0.41E+00    7.8     0.00008192     -1335.6044920915 -2.64E-04

 *** WARNING in dft_plus_u.F:1457 :: DFT+U energy contibution is negative ***
 *** possibly due to unphysical Mulliken charges. Check your input, if    ***
 *** this warning persists or try a different method!                     ***

    12 OT LS       0.51E+00    4.0                    -1335.6047215478

 *** WARNING in dft_plus_u.F:1457 :: DFT+U energy contibution is negative ***
 *** possibly due to unphysical Mulliken charges. Check your input, if    ***
 *** this warning persists or try a different method!                     ***

    13 OT CG       0.51E+00    7.9     0.00006699     -1335.6047304988 -2.38E-04

 *** WARNING in dft_plus_u.F:1457 :: DFT+U energy contibution is negative ***
 *** possibly due to unphysical Mulliken charges. Check your input, if    ***
 *** this warning persists or try a different method!                     ***

    14 OT LS       0.33E+00    3.9                    -1335.6048044491

 *** WARNING in dft_plus_u.F:1457 :: DFT+U energy contibution is negative ***
 *** possibly due to unphysical Mulliken charges. Check your input, if    ***
 *** this warning persists or try a different method!                     ***

    15 OT CG       0.33E+00    7.9     0.00004452     -1335.6048342844 -1.04E-04

 *** WARNING in dft_plus_u.F:1457 :: DFT+U energy contibution is negative ***
 *** possibly due to unphysical Mulliken charges. Check your input, if    ***
 *** this warning persists or try a different method!                     ***

    16 OT LS       0.49E+00    3.9                    -1335.6048947549

 *** WARNING in dft_plus_u.F:1457 :: DFT+U energy contibution is negative ***
 *** possibly due to unphysical Mulliken charges. Check your input, if    ***
 *** this warning persists or try a different method!                     ***

    17 OT CG       0.49E+00    8.0     0.00004513     -1335.6049016361 -6.74E-05

 *** WARNING in dft_plus_u.F:1457 :: DFT+U energy contibution is negative ***
 *** possibly due to unphysical Mulliken charges. Check your input, if    ***
 *** this warning persists or try a different method!                     ***

    18 OT LS       0.59E+00    4.0                    -1335.6049831000

 *** WARNING in dft_plus_u.F:1457 :: DFT+U energy contibution is negative ***
 *** possibly due to unphysical Mulliken charges. Check your input, if    ***
 *** this warning persists or try a different method!                     ***

    19 OT CG       0.59E+00    7.9     0.00004690     -1335.6049857331 -8.41E-05

 *** WARNING in dft_plus_u.F:1457 :: DFT+U energy contibution is negative ***
 *** possibly due to unphysical Mulliken charges. Check your input, if    ***
 *** this warning persists or try a different method!                     ***

    20 OT LS       0.52E+00    4.0                    -1335.6050635311

 *** WARNING in dft_plus_u.F:1457 :: DFT+U energy contibution is negative ***
 *** possibly due to unphysical Mulliken charges. Check your input, if    ***
 *** this warning persists or try a different method!                     ***

    21 OT CG       0.52E+00    7.8     0.00004239     -1335.6050651636 -7.94E-05

 *** WARNING in dft_plus_u.F:1457 :: DFT+U energy contibution is negative ***
 *** possibly due to unphysical Mulliken charges. Check your input, if    ***
 *** this warning persists or try a different method!                     ***

    22 OT LS       0.54E+00    4.1                    -1335.6051330656

 *** WARNING in dft_plus_u.F:1457 :: DFT+U energy contibution is negative ***
 *** possibly due to unphysical Mulliken charges. Check your input, if    ***
 *** this warning persists or try a different method!                     ***

    23 OT CG       0.54E+00    7.9     0.00004198     -1335.6051332098 -6.80E-05

 *** WARNING in dft_plus_u.F:1457 :: DFT+U energy contibution is negative ***
 *** possibly due to unphysical Mulliken charges. Check your input, if    ***
 *** this warning persists or try a different method!                     ***

    24 OT LS       0.58E+00    3.9                    -1335.6052036025

 *** WARNING in dft_plus_u.F:1457 :: DFT+U energy contibution is negative ***
 *** possibly due to unphysical Mulliken charges. Check your input, if    ***
 *** this warning persists or try a different method!                     ***

    25 OT CG       0.58E+00    7.9     0.00003917     -1335.6052038185 -7.06E-05

 *** WARNING in dft_plus_u.F:1457 :: DFT+U energy contibution is negative ***
 *** possibly due to unphysical Mulliken charges. Check your input, if    ***
 *** this warning persists or try a different method!                     ***

    26 OT LS       0.45E+00    3.9                    -1335.6052474139

 *** WARNING in dft_plus_u.F:1457 :: DFT+U energy contibution is negative ***
 *** possibly due to unphysical Mulliken charges. Check your input, if    ***
 *** this warning persists or try a different method!                     ***

    27 OT CG       0.45E+00    8.0     0.00002928     -1335.6052514506 -4.76E-05

 *** WARNING in dft_plus_u.F:1457 :: DFT+U energy contibution is negative ***
 *** possibly due to unphysical Mulliken charges. Check your input, if    ***
 *** this warning persists or try a different method!                     ***

    28 OT LS       0.37E+00    3.9                    -1335.6052727327

 *** WARNING in dft_plus_u.F:1457 :: DFT+U energy contibution is negative ***
 *** possibly due to unphysical Mulliken charges. Check your input, if    ***
 *** this warning persists or try a different method!                     ***

    29 OT CG       0.37E+00    7.9     0.00002255     -1335.6052736233 -2.22E-05

 *** WARNING in dft_plus_u.F:1457 :: DFT+U energy contibution is negative ***
 *** possibly due to unphysical Mulliken charges. Check your input, if    ***
 *** this warning persists or try a different method!                     ***

    30 OT LS       0.43E+00    4.0                    -1335.6052884669

 *** WARNING in dft_plus_u.F:1457 :: DFT+U energy contibution is negative ***
 *** possibly due to unphysical Mulliken charges. Check your input, if    ***
 *** this warning persists or try a different method!                     ***

    31 OT CG       0.43E+00    7.8     0.00001928     -1335.6052887181 -1.51E-05

 *** WARNING in dft_plus_u.F:1457 :: DFT+U energy contibution is negative ***
 *** possibly due to unphysical Mulliken charges. Check your input, if    ***
 *** this warning persists or try a different method!                     ***

    32 OT LS       0.45E+00    4.0                    -1335.6053003885

 *** WARNING in dft_plus_u.F:1457 :: DFT+U energy contibution is negative ***
 *** possibly due to unphysical Mulliken charges. Check your input, if    ***
 *** this warning persists or try a different method!                     ***

    33 OT CG       0.45E+00    7.9     0.00001472     -1335.6053004274 -1.17E-05

 *** WARNING in dft_plus_u.F:1457 :: DFT+U energy contibution is negative ***
 *** possibly due to unphysical Mulliken charges. Check your input, if    ***
 *** this warning persists or try a different method!                     ***

    34 OT LS       0.43E+00    3.9                    -1335.6053069205

 *** WARNING in dft_plus_u.F:1457 :: DFT+U energy contibution is negative ***
 *** possibly due to unphysical Mulliken charges. Check your input, if    ***
 *** this warning persists or try a different method!                     ***

    35 OT CG       0.43E+00    7.9     0.00001190     -1335.6053069360 -6.51E-06

 *** WARNING in dft_plus_u.F:1457 :: DFT+U energy contibution is negative ***
 *** possibly due to unphysical Mulliken charges. Check your input, if    ***
 *** this warning persists or try a different method!                     ***

    36 OT LS       0.58E+00    3.9                    -1335.6053122865

 *** WARNING in dft_plus_u.F:1457 :: DFT+U energy contibution is negative ***
 *** possibly due to unphysical Mulliken charges. Check your input, if    ***
 *** this warning persists or try a different method!                     ***

    37 OT CG       0.58E+00    7.9     0.00001221     -1335.6053126653 -5.73E-06

 *** WARNING in dft_plus_u.F:1457 :: DFT+U energy contibution is negative ***
 *** possibly due to unphysical Mulliken charges. Check your input, if    ***
 *** this warning persists or try a different method!                     ***

    38 OT LS       0.48E+00    4.0                    -1335.6053173711

 *** WARNING in dft_plus_u.F:1457 :: DFT+U energy contibution is negative ***
 *** possibly due to unphysical Mulliken charges. Check your input, if    ***
 *** this warning persists or try a different method!                     ***

    39 OT CG       0.48E+00    8.0     0.00001074     -1335.6053176065 -4.94E-06

 *** WARNING in dft_plus_u.F:1457 :: DFT+U energy contibution is negative ***
 *** possibly due to unphysical Mulliken charges. Check your input, if    ***
 *** this warning persists or try a different method!                     ***

    40 OT LS       0.46E+00    4.0                    -1335.6053213264

 *** WARNING in dft_plus_u.F:1457 :: DFT+U energy contibution is negative ***
 *** possibly due to unphysical Mulliken charges. Check your input, if    ***
 *** this warning persists or try a different method!                     ***

    41 OT CG       0.46E+00    7.8     0.00000942     -1335.6053213295 -3.72E-06

 *** WARNING in dft_plus_u.F:1457 :: DFT+U energy contibution is negative ***
 *** possibly due to unphysical Mulliken charges. Check your input, if    ***
 *** this warning persists or try a different method!                     ***

    42 OT LS       0.48E+00    4.0                    -1335.6053242946

 *** WARNING in dft_plus_u.F:1457 :: DFT+U energy contibution is negative ***
 *** possibly due to unphysical Mulliken charges. Check your input, if    ***
 *** this warning persists or try a different method!                     ***

    43 OT CG       0.48E+00    8.0     0.00000824     -1335.6053242983 -2.97E-06

 *** WARNING in dft_plus_u.F:1457 :: DFT+U energy contibution is negative ***
 *** possibly due to unphysical Mulliken charges. Check your input, if    ***
 *** this warning persists or try a different method!                     ***

    44 OT LS       0.54E+00    3.9                    -1335.6053268054

 *** WARNING in dft_plus_u.F:1457 :: DFT+U energy contibution is negative ***
 *** possibly due to unphysical Mulliken charges. Check your input, if    ***
 *** this warning persists or try a different method!                     ***

    45 OT CG       0.54E+00    7.9     0.00000734     -1335.6053268328 -2.53E-06

 *** WARNING in dft_plus_u.F:1457 :: DFT+U energy contibution is negative ***
 *** possibly due to unphysical Mulliken charges. Check your input, if    ***
 *** this warning persists or try a different method!                     ***

    46 OT LS       0.42E+00    3.9                    -1335.6053283210

 *** WARNING in dft_plus_u.F:1457 :: DFT+U energy contibution is negative ***
 *** possibly due to unphysical Mulliken charges. Check your input, if    ***
 *** this warning persists or try a different method!                     ***

    47 OT CG       0.42E+00    8.0     0.00000591     -1335.6053284296 -1.60E-06

 *** WARNING in dft_plus_u.F:1457 :: DFT+U energy contibution is negative ***
 *** possibly due to unphysical Mulliken charges. Check your input, if    ***
 *** this warning persists or try a different method!                     ***

    48 OT LS       0.42E+00    3.9                    -1335.6053294402

 *** WARNING in dft_plus_u.F:1457 :: DFT+U energy contibution is negative ***
 *** possibly due to unphysical Mulliken charges. Check your input, if    ***
 *** this warning persists or try a different method!                     ***

    49 OT CG       0.42E+00    7.9     0.00000488     -1335.6053294407 -1.01E-06

 *** WARNING in dft_plus_u.F:1457 :: DFT+U energy contibution is negative ***
 *** possibly due to unphysical Mulliken charges. Check your input, if    ***
 *** this warning persists or try a different method!                     ***

    50 OT LS       0.47E+00    3.9                    -1335.6053302096

 *** WARNING in dft_plus_u.F:1457 :: DFT+U energy contibution is negative ***
 *** possibly due to unphysical Mulliken charges. Check your input, if    ***
 *** this warning persists or try a different method!                     ***

    51 OT CG       0.47E+00    7.9     0.00000424     -1335.6053302178 -7.77E-07

 *** WARNING in dft_plus_u.F:1457 :: DFT+U energy contibution is negative ***
 *** possibly due to unphysical Mulliken charges. Check your input, if    ***
 *** this warning persists or try a different method!                     ***

    52 OT LS       0.47E+00    3.9                    -1335.6053308014

 *** WARNING in dft_plus_u.F:1457 :: DFT+U energy contibution is negative ***
 *** possibly due to unphysical Mulliken charges. Check your input, if    ***
 *** this warning persists or try a different method!                     ***

    53 OT CG       0.47E+00    8.3     0.00000349     -1335.6053308015 -5.84E-07

 *** WARNING in dft_plus_u.F:1457 :: DFT+U energy contibution is negative ***
 *** possibly due to unphysical Mulliken charges. Check your input, if    ***
 *** this warning persists or try a different method!                     ***

    54 OT LS       0.46E+00    3.9                    -1335.6053311915

 *** WARNING in dft_plus_u.F:1457 :: DFT+U energy contibution is negative ***
 *** possibly due to unphysical Mulliken charges. Check your input, if    ***
 *** this warning persists or try a different method!                     ***

    55 OT CG       0.46E+00    8.0     0.00000332     -1335.6053311916 -3.90E-07

 *** WARNING in dft_plus_u.F:1457 :: DFT+U energy contibution is negative ***
 *** possibly due to unphysical Mulliken charges. Check your input, if    ***
 *** this warning persists or try a different method!                     ***

    56 OT LS       0.46E+00    3.9                    -1335.6053315468

 *** WARNING in dft_plus_u.F:1457 :: DFT+U energy contibution is negative ***
 *** possibly due to unphysical Mulliken charges. Check your input, if    ***
 *** this warning persists or try a different method!                     ***

    57 OT CG       0.46E+00    7.9     0.00000297     -1335.6053315467 -3.55E-07

 *** WARNING in dft_plus_u.F:1457 :: DFT+U energy contibution is negative ***
 *** possibly due to unphysical Mulliken charges. Check your input, if    ***
[...]
 flops    32 x    15 x    30             32486400     100.0%      0.0%      0.0%
 flops    64 x    15 x    30             32486400     100.0%      0.0%      0.0%
 flops    19 x    13 x     2             33694752     100.0%      0.0%      0.0%
 flops     2 x    13 x    19             33694752     100.0%      0.0%      0.0%
 flops    19 x     8 x    15             33962880     100.0%      0.0%      0.0%
 flops     8 x    19 x    15             33962880     100.0%      0.0%      0.0%
 flops    45 x    13 x    43             37833120     100.0%      0.0%      0.0%
 flops   110 x    13 x    43             38369760     100.0%      0.0%      0.0%
 flops    19 x    15 x     2             38543400     100.0%      0.0%      0.0%
 flops     2 x    15 x    19             38543400     100.0%      0.0%      0.0%
 flops    32 x    13 x    30             42232320     100.0%      0.0%      0.0%
 flops   110 x    15 x    43             44272800     100.0%      0.0%      0.0%
 flops    47 x    15 x    43             45593760     100.0%      0.0%      0.0%
 flops     8 x     8 x    13             51344384     100.0%      0.0%      0.0%
 flops    19 x    13 x    19             53350024     100.0%      0.0%      0.0%
 flops     8 x    13 x     2             56749056     100.0%      0.0%      0.0%
 flops     2 x    13 x     8             56749056     100.0%      0.0%      0.0%
 flops    47 x    15 x    32             59107200     100.0%      0.0%      0.0%
 flops    47 x    32 x    15             59107200     100.0%      0.0%      0.0%
 flops     8 x     8 x    15             59243520     100.0%      0.0%      0.0%
 flops    19 x    15 x    19             61027050     100.0%      0.0%      0.0%
 flops    32 x    15 x    43             62085120     100.0%      0.0%      0.0%
 flops    64 x    15 x    43             62085120     100.0%      0.0%      0.0%
 flops     8 x    15 x     2             64915200     100.0%      0.0%      0.0%
 flops     2 x    15 x     8             64915200     100.0%      0.0%      0.0%
 flops    45 x    32 x    13             69189120     100.0%      0.0%      0.0%
 flops    45 x    13 x    32             69189120     100.0%      0.0%      0.0%
 flops    64 x    32 x    15             80486400     100.0%      0.0%      0.0%
 flops    32 x    15 x    32             80486400     100.0%      0.0%      0.0%
 flops    32 x    32 x    15             80486400     100.0%      0.0%      0.0%
 flops    64 x    15 x    32             80486400     100.0%      0.0%      0.0%
 flops    32 x    13 x    43             80710656     100.0%      0.0%      0.0%
 flops    19 x    13 x     8             89852672     100.0%      0.0%      0.0%
 flops     8 x    13 x    19             89852672     100.0%      0.0%      0.0%
 flops   109 x    13 x    32             95041024     100.0%      0.0%      0.0%
 flops   109 x    32 x    13             95041024     100.0%      0.0%      0.0%
 flops   112 x    13 x    32             97656832     100.0%      0.0%      0.0%
 flops   112 x    32 x    13             97656832     100.0%      0.0%      0.0%
 flops    19 x    15 x     8            102782400     100.0%      0.0%      0.0%
 flops     8 x    15 x    19            102782400     100.0%      0.0%      0.0%
 flops    45 x    32 x    24            103956480     100.0%      0.0%      0.0%
 flops   109 x    32 x    24            117531648     100.0%      0.0%      0.0%
 flops   112 x    32 x    24            120766464     100.0%      0.0%      0.0%
 flops    47 x    32 x    24            135720960     100.0%      0.0%      0.0%
 flops   109 x    15 x    32            137078400     100.0%      0.0%      0.0%
 flops   109 x    32 x    15            137078400     100.0%      0.0%      0.0%
 flops   112 x    15 x    32            140851200     100.0%      0.0%      0.0%
 flops   112 x    32 x    15            140851200     100.0%      0.0%      0.0%
 flops    32 x    13 x    32            147603456     100.0%      0.0%      0.0%
 flops    32 x    32 x    13            147603456     100.0%      0.0%      0.0%
 flops     8 x    13 x     8            151330816     100.0%      0.0%      0.0%
 flops     2 x     2 x    32            158118912     100.0%      0.0%      0.0%
 flops     8 x    15 x     8            173107200     100.0%      0.0%      0.0%
 flops    64 x    32 x    24            184811520     100.0%      0.0%      0.0%
 flops   110 x    32 x    13            191825920     100.0%      0.0%      0.0%
 flops   110 x    13 x    32            191825920     100.0%      0.0%      0.0%
 flops    45 x    32 x    30            194918400     100.0%      0.0%      0.0%
 flops   109 x    32 x    30            220371840     100.0%      0.0%      0.0%
 flops   112 x    32 x    30            226437120     100.0%      0.0%      0.0%
 flops   110 x    32 x    24            237219840     100.0%      0.0%      0.0%
 flops    19 x     2 x    32            244532736     100.0%      0.0%      0.0%
 flops     2 x    19 x    32            244532736     100.0%      0.0%      0.0%
 flops    47 x    32 x    30            254476800     100.0%      0.0%      0.0%
 flops   110 x    32 x    15            276672000     100.0%      0.0%      0.0%
 flops   110 x    15 x    32            276672000     100.0%      0.0%      0.0%
 flops    64 x    32 x    30            346521600     100.0%      0.0%      0.0%
 flops    45 x    32 x    43            372510720     100.0%      0.0%      0.0%
 flops    32 x    32 x    24            406585344     100.0%      0.0%      0.0%
 flops     8 x     2 x    32            411844608     100.0%      0.0%      0.0%
 flops     2 x     8 x    32            411844608     100.0%      0.0%      0.0%
 flops   109 x    32 x    43            421155072     100.0%      0.0%      0.0%
 flops   112 x    32 x    43            432746496     100.0%      0.0%      0.0%
 flops    19 x    19 x    32            442487808     100.0%      0.0%      0.0%
 flops   110 x    32 x    30            444787200     100.0%      0.0%      0.0%
 flops     2 x    32 x     2            469195776     100.0%      0.0%      0.0%
 flops    47 x    32 x    43            486333440     100.0%      0.0%      0.0%
 flops    47 x    32 x    32            630476800     100.0%      0.0%      0.0%
 flops    19 x     8 x    32            652087296     100.0%      0.0%      0.0%
 flops     8 x    19 x    32            652087296     100.0%      0.0%      0.0%
 flops    64 x    32 x    43            662241280     100.0%      0.0%      0.0%
 flops    45 x    32 x    32            681246720     100.0%      0.0%      0.0%
 flops    19 x    32 x     2            742893312     100.0%      0.0%      0.0%
 flops     2 x    32 x    19            742893312     100.0%      0.0%      0.0%
 flops    32 x    32 x    30            762347520     100.0%      0.0%      0.0%
 flops   110 x    32 x    43            850037760     100.0%      0.0%      0.0%
 flops    64 x    32 x    32            858521600     100.0%      0.0%      0.0%
 flops     8 x     8 x    32           1137475584     100.0%      0.0%      0.0%
 flops    19 x    32 x    19           1176247744     100.0%      0.0%      0.0%
 flops     8 x    32 x     2           1251188736     100.0%      0.0%      0.0%
 flops     2 x    32 x     8           1251188736     100.0%      0.0%      0.0%
 flops    32 x    32 x    43           1456930816     100.0%      0.0%      0.0%
 flops    19 x    32 x     8           1981048832     100.0%      0.0%      0.0%
 flops     8 x    32 x    19           1981048832     100.0%      0.0%      0.0%
 flops    32 x    32 x    32           2311847936     100.0%      0.0%      0.0%
 flops   109 x    32 x    32           2397958144     100.0%      0.0%      0.0%
 flops   112 x    32 x    32           2463956992     100.0%      0.0%      0.0%
 flops     8 x    32 x     8           3336503296     100.0%      0.0%      0.0%
 flops   110 x    32 x    32           4839915520     100.0%      0.0%      0.0%
 flops inhomo. stacks                  4389423528     100.0%      0.0%      0.0%
 flops total                        49.692262E+09     100.0%      0.0%      0.0%
 flops max/rank                      2.649725E+09     100.0%      0.0%      0.0%
 matmuls inhomo. stacks                     29964     100.0%      0.0%      0.0%
 matmuls total                           10308897     100.0%      0.0%      0.0%
 number of processed stacks               1042916     100.0%      0.0%      0.0%
 average stack size                                     9.9       0.0       0.0
 marketing flops                    53.858169E+09
 -------------------------------------------------------------------------------
 # multiplications                           2089
 max memory usage/rank               1.227297E+09
 # max total images/rank                        3
 # max 3D layers                                1
 # MPI messages exchanged                 4411968
 MPI messages size (bytes):
  total size                        21.076689E+09
  min size                           0.000000E+00
  max size                          43.904000E+03
  average size                       4.777163E+03
 MPI breakdown and total messages size (bytes):
             size <=      128             2701083                        0
       128 < size <=     8192              860079               5568097480
      8192 < size <=    32768              755634              11875126032
     32768 < size <=   131072               95172               3633476616
    131072 < size <=  4194304                   0                        0
   4194304 < size <= 16777216                   0                        0
  16777216 < size                               0                        0
 -------------------------------------------------------------------------------

 *** WARNING in dbcsr/mm/dbcsr_mm.F:268 :: Using a non-square number of ***
 *** MPI ranks might lead to poor performance.                          ***
 *** Used ranks: 48                                                     ***
 *** Suggested: 49 100                                                  ***

 -------------------------------------------------------------------------------

 MEMORY| Estimated peak process memory [MiB]                                1171

 -------------------------------------------------------------------------------
 ----                             MULTIGRID INFO                            ----
 -------------------------------------------------------------------------------
 count for grid        1:        1453654          cutoff [a.u.]          325.00
 count for grid        2:         608936          cutoff [a.u.]          108.33
 count for grid        3:         373077          cutoff [a.u.]           36.11
 count for grid        4:         125105          cutoff [a.u.]           12.04
 count for grid        5:           4320          cutoff [a.u.]            4.01
 count for grid        6:              0          cutoff [a.u.]            1.34
 count for grid        7:              0          cutoff [a.u.]            0.45
 count for grid        8:              0          cutoff [a.u.]            0.15
 count for grid        9:              0          cutoff [a.u.]            0.05
 count for grid       10:              0          cutoff [a.u.]            0.02
 total gridlevel count  :        2565092

 -------------------------------------------------------------------------------
 -                                                                             -
 -                         MESSAGE PASSING PERFORMANCE                         -
 -                                                                             -
 -------------------------------------------------------------------------------

 ROUTINE             CALLS      AVE VOLUME [Bytes]
 MP_Group               31
 MP_Bcast             1074                 302185.
 MP_Allreduce        12447                    442.
 MP_Sync              1378
 MP_Alltoall          9736               16680412.
 MP_ISendRecv        85728                 123544.
 MP_Wait            346364
 MP_ISend           223704                  64476.
 MP_IRecv           223104                  64565.
 MP_Recv                88                  47628.
 MP_Memory          159786
 -------------------------------------------------------------------------------


 -------------------------------------------------------------------------------
 -                                                                             -
 -                           R E F E R E N C E S                               -
 -                                                                             -
 -------------------------------------------------------------------------------
 
 CP2K version 6.1, the CP2K developers group (2018).
 CP2K is freely available from https://www.cp2k.org/ .

 Schuett, Ole; Messmer, Peter; Hutter, Juerg; VandeVondele, Joost. 
 Electronic Structure Calculations on Graphics Processing Units, John Wiley & Sons, Ltd, 173-190 (2016). 
 GPU-Accelerated Sparse Matrix-Matrix Multiplication for Linear Scaling Density Functional Theory.
 http://dx.doi.org/10.1002/9781118670712.ch8


 Borstnik, U; VandeVondele, J; Weber, V; Hutter, J. 
 PARALLEL COMPUTING, 40 (5-6), 47-58 (2014). 
 Sparse matrix multiplication: The distributed block-compressed sparse
 row library.
 http://dx.doi.org/10.1016/j.parco.2014.03.012


 Hutter, J; Iannuzzi, M; Schiffmann, F; VandeVondele, J. 
 WILEY INTERDISCIPLINARY REVIEWS-COMPUTATIONAL MOLECULAR SCIENCE, 4 (1), 15-25 (2014). 
 CP2K: atomistic simulations of condensed matter systems.
 http://dx.doi.org/10.1002/wcms.1159


 Krack, M. 
 THEORETICAL CHEMISTRY ACCOUNTS, 114 (1-3), 145-152 (2005). 
 Pseudopotentials for H to Kr optimized for gradient-corrected
 exchange-correlation functionals.
 http://dx.doi.org/10.1007/s00214-005-0655-y


 VandeVondele, J; Krack, M; Mohamed, F; Parrinello, M; Chassaing, T;
 Hutter, J. COMPUTER PHYSICS COMMUNICATIONS, 167 (2), 103-128 (2005). 
 QUICKSTEP: Fast and accurate density functional calculations using a
 mixed Gaussian and plane waves approach.
 http://dx.doi.org/10.1016/j.cpc.2004.12.014


 Frigo, M; Johnson, SG. 
 PROCEEDINGS OF THE IEEE, 93 (2), 216-231 (2005). 
 The design and implementation of FFTW3.
 http://dx.doi.org/10.1109/JPROC.2004.840301


 VandeVondele, J; Hutter, J. 
 JOURNAL OF CHEMICAL PHYSICS, 118 (10), 4365-4369 (2003). 
 An efficient orbital transformation method for electronic structure
 calculations.
 http://dx.doi.org/10.1063/1.1543154


 Hartwigsen, C; Goedecker, S; Hutter, J. 
 PHYSICAL REVIEW B, 58 (7), 3641-3662 (1998). 
 Relativistic separable dual-space Gaussian pseudopotentials from H to Rn.
 http://dx.doi.org/10.1103/PhysRevB.58.3641


 Dudarev, SL; Botton, GA; Savrasov, SY; Humphreys, CJ; Sutton, AP. 
 PHYSICAL REVIEW B, 57 (3), 1505-1509 (1998). 
 Electron-energy-loss spectra and the structural stability of
 nickel oxide: An LSDA+U study.
 http://dx.doi.org/10.1103/PhysRevB.57.1505


 Lippert, G; Hutter, J; Parrinello, M. 
 MOLECULAR PHYSICS, 92 (3), 477-487 (1997). 
 A hybrid Gaussian and plane wave density functional scheme.
 http://dx.doi.org/10.1080/002689797170220


 Dudarev, SL; Manh, DN; Sutton, AP. 
 PHILOSOPHICAL MAGAZINE B, 75 (5), 613-628 (1997). 
 Effect of Mott-Hubbard correlations on the electronic
 structure and structural stability of uranium dioxide.
 http://dx.doi.org/10.1080/13642819708202343


 Goedecker, S; Teter, M; Hutter, J. 
 PHYSICAL REVIEW B, 54 (3), 1703-1710 (1996). 
 Separable dual-space Gaussian pseudopotentials.
 http://dx.doi.org/10.1103/PhysRevB.54.1703


 BECKE, AD. PHYSICAL REVIEW A, 38 (6), 3098-3100 (1988). 
 DENSITY-FUNCTIONAL EXCHANGE-ENERGY APPROXIMATION WITH CORRECT
 ASYMPTOTIC-BEHAVIOR.
 http://dx.doi.org/10.1103/PhysRevA.38.3098


 LEE, CT; YANG, WT; PARR, RG. 
 PHYSICAL REVIEW B, 37 (2), 785-789 (1988). 
 DEVELOPMENT OF THE COLLE-SALVETTI CORRELATION-ENERGY FORMULA INTO A
 FUNCTIONAL OF THE ELECTRON-DENSITY.
 http://dx.doi.org/10.1103/PhysRevB.37.785


 -------------------------------------------------------------------------------
 -                                                                             -
 -                                T I M I N G                                  -
 -                                                                             -
 -------------------------------------------------------------------------------
 SUBROUTINE                       CALLS  ASD         SELF TIME        TOTAL TIME
                                MAXIMUM       AVERAGE  MAXIMUM  AVERAGE  MAXIMUM
 CP2K                                 1  1.0    0.021    0.030  451.045  451.046
 qs_energies                          1  2.0    0.000    0.000  450.103  450.103
 scf_env_do_scf                       1  3.0    0.000    0.000  447.382  447.382
 scf_env_do_scf_inner_loop           75  4.0    0.003    0.006  441.061  441.072
 pw_transfer                       3375  9.3    0.153    0.184  331.066  335.895
 fft_wrap_pw1pw2                   3225 10.3    0.023    0.071  329.075  333.856
 fft_wrap_pw1pw2_330               1173 11.9   19.195   20.217  314.444  319.185
 qs_ks_update_qs_env                 76  5.0    0.002    0.002  313.534  313.601
 rebuild_ks_matrix                   75  6.0    0.000    0.000  313.520  313.587
 qs_ks_build_kohn_sham_matrix        75  7.0    0.014    0.016  313.520  313.587
 fft3d_ps                          3225 12.3  150.565  153.173  260.318  263.639
 qs_vxc_create                       75  8.0    0.001    0.001  247.179  247.979
 xc_vxc_pw_create                    38  9.0    3.276    3.777  171.495  172.283
 xc_rho_set_and_dset_create          75 10.0    7.139    7.552  152.138  153.535
 qs_rho_update_rho                   76  5.0    0.001    0.001  133.001  133.007
 calculate_rho_elec                 152  6.0    4.613   15.567  133.001  133.006
 density_rs2pw                      152  7.0    0.011    0.012  123.271  125.921
 mp_alltoall_z22v                  3225 14.3   66.920   85.137   66.920   85.137
 xc_exc_calc                         37  9.0    0.366    0.381   75.683   75.702
 x_to_yz                            944 14.3   30.346   31.466   69.213   72.661
 yz_to_x                            913 12.7   12.126   13.026   40.148   48.737
 rs_pw_transfer                    2284  9.0    0.017    0.020   44.362   46.580
 sum_up_and_integrate                38  8.0    0.463    0.482   46.029   46.032
 integrate_v_rspace                  76  9.0    1.341    5.733   45.566   45.630
 potential_pw2rs                     76 10.0    0.066    0.075   39.723   39.789
 pw_scatter_p                      1400 13.5   25.922   32.107   25.922   32.107
 pw_gather_p                       1825 11.4   22.740   23.311   22.740   23.311
 rs_pw_transfer_RS2PW_330           154  9.0    7.555    8.898   18.506   20.974
 mp_waitany                       23920 11.0   14.251   17.452   14.251   17.452
 pw_derive                          678 10.7   14.449   15.064   14.449   15.064
 fft_wrap_pw1pw2_110                228 11.0    0.746    0.783   11.488   11.932
 pw_copy                           1586 10.8    9.560   10.182    9.560   10.182
 -------------------------------------------------------------------------------

 The number of warnings for this run is : 76
 
 -------------------------------------------------------------------------------
  **** **** ******  **  PROGRAM ENDED AT                 2019-08-07 08:42:04.434
 ***** ** ***  *** **   PROGRAM RAN ON            cpn-u27-03.cbls.ccr.buffalo.ed
 **    ****   ******    PROGRAM RAN BY                                  pavankum
 ***** **    ** ** **   PROGRAM PROCESS ID                                 39777
  **** **  *******  **  PROGRAM STOPPED IN /projects/academic/mdupuis2/pavan/VAB
                                           _calculation/results_for_paper/3.1D_F
                                           e_7units/blyp_plusU9/point_0.4
