 DBCSR| Multiplication driver                                               BLAS
 DBCSR| Multrec recursion limit                                              512
 DBCSR| Multiplication stack size                                           1000
 DBCSR| Maximum elements for images                                    UNLIMITED
 DBCSR| Multiplicative factor virtual images                                   1
 DBCSR| Multiplication size stacks                                             3
 DBCSR| Number of 3D layers                                               SINGLE
 DBCSR| Use MPI memory allocation                                              T
 DBCSR| Use RMA algorithm                                                      F
 DBCSR| Use Communication thread                                               T
 DBCSR| Communication thread load                                             87


  **** **** ******  **  PROGRAM STARTED AT               2019-08-11 09:32:17.160
 ***** ** ***  *** **   PROGRAM STARTED ON        cpn-u22-32.cbls.ccr.buffalo.ed
 **    ****   ******    PROGRAM STARTED BY                              pavankum
 ***** **    ** ** **   PROGRAM PROCESS ID                                125423
  **** **  *******  **  PROGRAM STARTED IN /projects/academic/mdupuis2/pavan/VAB
                                           _calculation/results_for_paper/3.1D_F
                                           e_7units/blyp_plusU5/def_opts/point_0
                                           .7

 CP2K| version string:                                          CP2K version 6.1
 CP2K| source code revision number:                                    svn:18464
 CP2K| cp2kflags: libint fftw3 libxc parallel mpi3 scalapack libderiv_max_am1=5 
 CP2K|            libint_max_am=6
 CP2K| is freely available from                            https://www.cp2k.org/
 CP2K| Program compiled at                          Fri Nov 30 14:17:09 EST 2018
 CP2K| Program compiled on                       srv-p22-12.cbls.ccr.buffalo.edu
 CP2K| Program compiled for                                                local
 CP2K| Data directory path    /projects/academic/mdupuis2/pavan/cp2k/cp2k-6.1/da
 CP2K| Input file name                                                 input.inp

 GLOBAL| Force Environment number                                              1
 GLOBAL| Basis set file name            /projects/academic/mdupuis2/pavan/BASIS_
 GLOBAL| Potential file name            /projects/academic/mdupuis2/pavan/POTENT
 GLOBAL| MM Potential file name                                     MM_POTENTIAL
 GLOBAL| Coordinate file name                             intermediate_point.xyz
 GLOBAL| Method name                                                        CP2K
 GLOBAL| Project name                                                      p_fe_
 GLOBAL| Preferred FFT library                                             FFTW3
 GLOBAL| Preferred diagonalization lib.                                       SL
 GLOBAL| Run type                                                         ENERGY
 GLOBAL| All-to-all communication in single precision                          F
 GLOBAL| FFTs using library dependent lengths                                  T
 GLOBAL| Global print level                                               MEDIUM
 GLOBAL| Total number of message passing processes                            32
 GLOBAL| Number of threads for this process                                    1
 GLOBAL| This output is from process                                           0
 GLOBAL| CPU model name :  Intel(R) Xeon(R) Gold 6130 CPU @ 2.10GHz

 MEMORY| system memory details [Kb]
 MEMORY|                        rank 0           min           max       average
 MEMORY| MemTotal            196268376     196268376     196268376     196268376
 MEMORY| MemFree             181665056     181665056     181665056     181665056
 MEMORY| Buffers                255112        255112        255112        255112
 MEMORY| Cached                8286444       8286444       8286444       8286444
 MEMORY| Slab                   551124        551124        551124        551124
 MEMORY| SReclaimable           201940        201940        201940        201940
 MEMORY| MemLikelyFree       190408552     190408552     190408552     190408552


 *** Fundamental physical constants (SI units) ***

 *** Literature: B. J. Mohr and B. N. Taylor,
 ***             CODATA recommended values of the fundamental physical
 ***             constants: 2006, Web Version 5.1
 ***             http://physics.nist.gov/constants

 Speed of light in vacuum [m/s]                             2.99792458000000E+08
 Magnetic constant or permeability of vacuum [N/A**2]       1.25663706143592E-06
 Electric constant or permittivity of vacuum [F/m]          8.85418781762039E-12
 Planck constant (h) [J*s]                                  6.62606896000000E-34
 Planck constant (h-bar) [J*s]                              1.05457162825177E-34
 Elementary charge [C]                                      1.60217648700000E-19
 Electron mass [kg]                                         9.10938215000000E-31
 Electron g factor [ ]                                     -2.00231930436220E+00
 Proton mass [kg]                                           1.67262163700000E-27
 Fine-structure constant                                    7.29735253760000E-03
 Rydberg constant [1/m]                                     1.09737315685270E+07
 Avogadro constant [1/mol]                                  6.02214179000000E+23
 Boltzmann constant [J/K]                                   1.38065040000000E-23
 Atomic mass unit [kg]                                      1.66053878200000E-27
 Bohr radius [m]                                            5.29177208590000E-11

 *** Conversion factors ***

 [u] -> [a.u.]                                              1.82288848426455E+03
 [Angstrom] -> [Bohr] = [a.u.]                              1.88972613288564E+00
 [a.u.] = [Bohr] -> [Angstrom]                              5.29177208590000E-01
 [a.u.] -> [s]                                              2.41888432650478E-17
 [a.u.] -> [fs]                                             2.41888432650478E-02
 [a.u.] -> [J]                                              4.35974393937059E-18
 [a.u.] -> [N]                                              8.23872205491840E-08
 [a.u.] -> [K]                                              3.15774647902944E+05
 [a.u.] -> [kJ/mol]                                         2.62549961709828E+03
 [a.u.] -> [kcal/mol]                                       6.27509468713739E+02
 [a.u.] -> [Pa]                                             2.94210107994716E+13
 [a.u.] -> [bar]                                            2.94210107994716E+08
 [a.u.] -> [atm]                                            2.90362800883016E+08
 [a.u.] -> [eV]                                             2.72113838565563E+01
 [a.u.] -> [Hz]                                             6.57968392072181E+15
 [a.u.] -> [1/cm] (wave numbers)                            2.19474631370540E+05
 [a.u./Bohr**2] -> [1/cm]                                   5.14048714338585E+03
 

 CELL_TOP| Volume [angstrom^3]:                                        26196.625
 CELL_TOP| Vector a [angstrom    21.385     0.000     0.000    |a| =      21.385
 CELL_TOP| Vector b [angstrom     0.000    35.000     0.000    |b| =      35.000
 CELL_TOP| Vector c [angstrom     0.000     0.000    35.000    |c| =      35.000
 CELL_TOP| Angle (b,c), alpha [degree]:                                   90.000
 CELL_TOP| Angle (a,c), beta  [degree]:                                   90.000
 CELL_TOP| Angle (a,b), gamma [degree]:                                   90.000
 CELL_TOP| Numerically orthorhombic:                                         YES

 CELL| Volume [angstrom^3]:                                            26196.625
 CELL| Vector a [angstrom]:      21.385     0.000     0.000    |a| =      21.385
 CELL| Vector b [angstrom]:       0.000    35.000     0.000    |b| =      35.000
 CELL| Vector c [angstrom]:       0.000     0.000    35.000    |c| =      35.000
 CELL| Angle (b,c), alpha [degree]:                                       90.000
 CELL| Angle (a,c), beta  [degree]:                                       90.000
 CELL| Angle (a,b), gamma [degree]:                                       90.000
 CELL| Numerically orthorhombic:                                             YES

 CELL_REF| Volume [angstrom^3]:                                        26196.625
 CELL_REF| Vector a [angstrom    21.385     0.000     0.000    |a| =      21.385
 CELL_REF| Vector b [angstrom     0.000    35.000     0.000    |b| =      35.000
 CELL_REF| Vector c [angstrom     0.000     0.000    35.000    |c| =      35.000
 CELL_REF| Angle (b,c), alpha [degree]:                                   90.000
 CELL_REF| Angle (a,c), beta  [degree]:                                   90.000
 CELL_REF| Angle (a,b), gamma [degree]:                                   90.000
 CELL_REF| Numerically orthorhombic:                                         YES

 *******************************************************************************
 *******************************************************************************
 **                                                                           **
 **     #####                         ##              ##                      **
 **    ##   ##            ##          ##              ##                      **
 **   ##     ##                       ##            ######                    **
 **   ##     ##  ##   ##  ##   #####  ##  ##   ####   ##    #####    #####    **
 **   ##     ##  ##   ##  ##  ##      ## ##   ##      ##   ##   ##  ##   ##   **
 **   ##  ## ##  ##   ##  ##  ##      ####     ###    ##   ######   ######    **
 **    ##  ###   ##   ##  ##  ##      ## ##      ##   ##   ##       ##        **
 **     #######   #####   ##   #####  ##  ##  ####    ##    #####   ##        **
 **           ##                                                    ##        **
 **                                                                           **
 **                                                ... make the atoms dance   **
 **                                                                           **
 **            Copyright (C) by CP2K developers group (2000 - 2018)           **
 **                                                                           **
 *******************************************************************************

 DFT| Spin unrestricted (spin-polarized) Kohn-Sham calculation               UKS
 DFT| Multiplicity                                                            35
 DFT| Number of spin states                                                    2
 DFT| Charge                                                                   6
 DFT| Self-interaction correction (SIC)                                       NO
 DFT| Cutoffs: density                                              1.000000E-10
 DFT|          gradient                                             1.000000E-10
 DFT|          tau                                                  1.000000E-10
 DFT|          cutoff_smoothing_range                               0.000000E+00
 DFT| XC density smoothing                                                  NONE
 DFT| XC derivatives                                                          PW

 DFT+U| Method                                                          MULLIKEN
 DFT+U| Check atomic kind information for details
 FUNCTIONAL| ROUTINE=NEW
 FUNCTIONAL| BECKE88:
 FUNCTIONAL| A. Becke, Phys. Rev. A 38, 3098 (1988) {LSD version}               
 FUNCTIONAL| LYP:
 FUNCTIONAL| C. Lee, W. Yang, R.G. Parr, Phys. Rev. B, 37, 785 (1988) {LSD versi
 FUNCTIONAL| on}                                                                

 QS| Method:                                                                 GPW
 QS| Density plane wave grid type                        NON-SPHERICAL FULLSPACE
 QS| Number of grid levels:                                                   10
 QS| Density cutoff [a.u.]:                                                325.0
 QS| Multi grid cutoff [a.u.]: 1) grid level                               325.0
 QS|                           2) grid level                               108.3
 QS|                           3) grid level                                36.1
 QS|                           4) grid level                                12.0
 QS|                           5) grid level                                 4.0
 QS|                           6) grid level                                 1.3
 QS|                           7) grid level                                 0.4
 QS|                           8) grid level                                 0.1
 QS|                           9) grid level                                 0.0
 QS|                          10) grid level                                 0.0
 QS| Grid level progression factor:                                          3.0
 QS| Relative density cutoff [a.u.]:                                        30.0
 QS| Consistent realspace mapping and integration 
 QS| Interaction thresholds: eps_pgf_orb:                                1.0E-10
 QS|                         eps_filter_matrix:                          0.0E+00
 QS|                         eps_core_charge:                            1.0E-14
 QS|                         eps_rho_gspace:                             1.0E-12
 QS|                         eps_rho_rspace:                             1.0E-12
 QS|                         eps_gvg_rspace:                             1.0E-06
 QS|                         eps_ppl:                                    1.0E-02
 QS|                         eps_ppnl:                                   1.0E-08


 ATOMIC KIND INFORMATION

  1. Atomic kind: Fe                                    Number of atoms:       7

     Orbital Basis Set                                                   mod-DZV

       Number of orbital shell sets:                                           1
       Number of orbital shells:                                               7
       Number of primitive Cartesian functions:                                6
       Number of Cartesian basis functions:                                   21
       Number of spherical basis functions:                                   19
       Norm type:                                                              2

       Normalised Cartesian orbitals:

                        Set   Shell   Orbital            Exponent    Coefficient

                          1       1    2s                8.424366      -0.545589
                                                         4.825220      -0.832336
                                                         2.198939       0.958990
                                                         0.891661       0.416271
                                                         0.316231       0.012631
                                                         0.103474      -0.013505

                          1       2    3s                8.424366      -0.106056
                                                         4.825220      -0.104587
                                                         2.198939       0.052318
                                                         0.891661      -0.169042
                                                         0.316231       0.061854
                                                         0.103474       0.122891

                          1       3    4s                8.424366      -0.333477
                                                         4.825220      -0.289267
                                                         2.198939      -0.125861
                                                         0.891661      -1.004000
                                                         0.316231       0.780774
                                                         0.103474      -0.187846

                          1       4    3px               8.424366      -1.658234
                                                         4.825220       1.618912
                                                         2.198939       1.969078
                                                         0.891661       0.523780
                                                         0.316231       0.024574
                                                         0.103474      -0.000798
                          1       4    3py               8.424366      -1.658234
                                                         4.825220       1.618912
                                                         2.198939       1.969078
                                                         0.891661       0.523780
                                                         0.316231       0.024574
                                                         0.103474      -0.000798
                          1       4    3pz               8.424366      -1.658234
                                                         4.825220       1.618912
                                                         2.198939       1.969078
                                                         0.891661       0.523780
                                                         0.316231       0.024574
                                                         0.103474      -0.000798

                          1       5    4px               8.424366      -0.105249
                                                         4.825220      -0.126123
                                                         2.198939      -0.349657
                                                         0.891661      -0.133470
                                                         0.316231       0.170554
                                                         0.103474       0.054381
                          1       5    4py               8.424366      -0.105249
                                                         4.825220      -0.126123
                                                         2.198939      -0.349657
                                                         0.891661      -0.133470
                                                         0.316231       0.170554
                                                         0.103474       0.054381
                          1       5    4pz               8.424366      -0.105249
                                                         4.825220      -0.126123
                                                         2.198939      -0.349657
                                                         0.891661      -0.133470
                                                         0.316231       0.170554
                                                         0.103474       0.054381

                          1       6    4dx2              8.424366       7.918298
                                                         4.825220       5.112663
                                                         2.198939       2.118663
                                                         0.891661       0.465004
                                                         0.316231       0.065856
                                                         0.103474       0.002769
                          1       6    4dxy              8.424366      13.714895
                                                         4.825220       8.855393
                                                         2.198939       3.669632
                                                         0.891661       0.805411
                                                         0.316231       0.114066
                                                         0.103474       0.004796
                          1       6    4dxz              8.424366      13.714895
                                                         4.825220       8.855393
                                                         2.198939       3.669632
                                                         0.891661       0.805411
                                                         0.316231       0.114066
                                                         0.103474       0.004796
                          1       6    4dy2              8.424366       7.918298
                                                         4.825220       5.112663
                                                         2.198939       2.118663
                                                         0.891661       0.465004
                                                         0.316231       0.065856
                                                         0.103474       0.002769
                          1       6    4dyz              8.424366      13.714895
                                                         4.825220       8.855393
                                                         2.198939       3.669632
                                                         0.891661       0.805411
                                                         0.316231       0.114066
                                                         0.103474       0.004796
                          1       6    4dz2              8.424366       7.918298
                                                         4.825220       5.112663
                                                         2.198939       2.118663
                                                         0.891661       0.465004
                                                         0.316231       0.065856
                                                         0.103474       0.002769

                          1       7    5dx2              8.424366      -4.223614
                                                         4.825220      -1.970584
                                                         2.198939      -1.543490
                                                         0.891661      -0.041381
                                                         0.316231       0.082821
                                                         0.103474       0.021964
                          1       7    5dxy              8.424366      -7.315513
                                                         4.825220      -3.413151
                                                         2.198939      -2.673404
                                                         0.891661      -0.071673
                                                         0.316231       0.143450
                                                         0.103474       0.038042
                          1       7    5dxz              8.424366      -7.315513
                                                         4.825220      -3.413151
                                                         2.198939      -2.673404
                                                         0.891661      -0.071673
                                                         0.316231       0.143450
                                                         0.103474       0.038042
                          1       7    5dy2              8.424366      -4.223614
                                                         4.825220      -1.970584
                                                         2.198939      -1.543490
                                                         0.891661      -0.041381
                                                         0.316231       0.082821
                                                         0.103474       0.021964
                          1       7    5dyz              8.424366      -7.315513
                                                         4.825220      -3.413151
                                                         2.198939      -2.673404
                                                         0.891661      -0.071673
                                                         0.316231       0.143450
                                                         0.103474       0.038042
                          1       7    5dz2              8.424366      -4.223614
                                                         4.825220      -1.970584
                                                         2.198939      -1.543490
                                                         0.891661      -0.041381
                                                         0.316231       0.082821
                                                         0.103474       0.021964

     GTH Potential information for                                  GTH-BLYP-q16

       Description:                       Goedecker-Teter-Hutter pseudopotential
                                           Goedecker et al., PRB 54, 1703 (1996)
                                          Hartwigsen et al., PRB 58, 3641 (1998)
                                                      Krack, TCA 114, 145 (2005)

       Gaussian exponent of the core charge distribution:               3.858025
       Electronic configuration (s p d ...):                           4   6   6

       Parameters of the local part of the GTH pseudopotential:

                          rloc        C1          C2          C3          C4
                        0.360000    7.011025   -0.222747

       Parameters of the non-local part of the GTH pseudopotential:

                   l      r(l)      h(i,j,l)

                   0    0.276205    0.611496    7.992357
                                    7.992357  -10.318089
                   1    0.247130   -8.710556    8.684169
                                    8.684169  -10.275248
                   2    0.223534  -12.411504

     A DFT+U correction is applied to atoms of this atomic kind:
       Angular quantum momentum number L:                                      2
       U(eff) = (U - J) value in [eV]:                                     5.000

  2. Atomic kind: O                                     Number of atoms:      28

     Orbital Basis Set                                                   mod-DZV

       Number of orbital shell sets:                                           1
       Number of orbital shells:                                               4
       Number of primitive Cartesian functions:                                5
       Number of Cartesian basis functions:                                    8
       Number of spherical basis functions:                                    8
       Norm type:                                                              2

       Normalised Cartesian orbitals:

                        Set   Shell   Orbital            Exponent    Coefficient

                          1       1    2s               10.389228       0.396646
                                                         3.849621       0.208811
                                                         1.388401      -0.301641
                                                         0.496955      -0.274061
                                                         0.162492      -0.033677

                          1       2    3s               10.389228       0.303673
                                                         3.849621       0.240943
                                                         1.388401      -0.313066
                                                         0.496955      -0.043055
                                                         0.162492       0.213991

                          1       3    3px              10.389228      -1.530415
                                                         3.849621      -1.371928
                                                         1.388401      -0.761951
                                                         0.496955      -0.253695
                                                         0.162492      -0.035541
                          1       3    3py              10.389228      -1.530415
                                                         3.849621      -1.371928
                                                         1.388401      -0.761951
                                                         0.496955      -0.253695
                                                         0.162492      -0.035541
                          1       3    3pz              10.389228      -1.530415
                                                         3.849621      -1.371928
                                                         1.388401      -0.761951
                                                         0.496955      -0.253695
                                                         0.162492      -0.035541

                          1       4    4px              10.389228      -0.565392
                                                         3.849621      -0.038231
                                                         1.388401      -0.382373
                                                         0.496955       0.179070
                                                         0.162492       0.122714
                          1       4    4py              10.389228      -0.565392
                                                         3.849621      -0.038231
                                                         1.388401      -0.382373
                                                         0.496955       0.179070
                                                         0.162492       0.122714
                          1       4    4pz              10.389228      -0.565392
                                                         3.849621      -0.038231
                                                         1.388401      -0.382373
                                                         0.496955       0.179070
                                                         0.162492       0.122714

     GTH Potential information for                                   GTH-BLYP-q6

       Description:                       Goedecker-Teter-Hutter pseudopotential
                                           Goedecker et al., PRB 54, 1703 (1996)
                                          Hartwigsen et al., PRB 58, 3641 (1998)
                                                      Krack, TCA 114, 145 (2005)

       Gaussian exponent of the core charge distribution:               8.438331
       Electronic configuration (s p d ...):                               2   4

       Parameters of the local part of the GTH pseudopotential:

                          rloc        C1          C2          C3          C4
                        0.243420  -16.991892    2.566142

       Parameters of the non-local part of the GTH pseudopotential:

                   l      r(l)      h(i,j,l)

                   0    0.220831   18.388851
                   1    0.217201

  3. Atomic kind: H                                     Number of atoms:      42

     Orbital Basis Set                                                   mod-DZV

       Number of orbital shell sets:                                           1
       Number of orbital shells:                                               2
       Number of primitive Cartesian functions:                                5
       Number of Cartesian basis functions:                                    2
       Number of spherical basis functions:                                    2
       Norm type:                                                              2

       Normalised Cartesian orbitals:

                        Set   Shell   Orbital            Exponent    Coefficient

                          1       1    2s               10.068468      -0.133023
                                                         2.680223      -0.177618
                                                         0.791502      -0.258419
                                                         0.239116      -0.107525
                                                         0.082193      -0.014019

                          1       2    3s               10.068468       0.344673
                                                         2.680223       1.819821
                                                         0.791502      -0.999069
                                                         0.239116       0.017430
                                                         0.082193       0.082660

     GTH Potential information for                                   GTH-BLYP-q1

       Description:                       Goedecker-Teter-Hutter pseudopotential
                                           Goedecker et al., PRB 54, 1703 (1996)
                                          Hartwigsen et al., PRB 58, 3641 (1998)
                                                      Krack, TCA 114, 145 (2005)

       Gaussian exponent of the core charge distribution:              12.500000
       Electronic configuration (s p d ...):                                   1

       Parameters of the local part of the GTH pseudopotential:

                          rloc        C1          C2          C3          C4
                        0.200000   -4.195961    0.730498


 MOLECULE KIND INFORMATION


 All atoms are their own molecule, skipping detailed information


 TOTAL NUMBERS AND MAXIMUM NUMBERS

  Total number of            - Atomic kinds:                                   3
                             - Atoms:                                         77
                             - Shell sets:                                    77
                             - Shells:                                       245
                             - Primitive Cartesian functions:                392
                             - Cartesian basis functions:                    455
                             - Spherical basis functions:                    441

  Maximum angular momentum of- Orbital basis functions:                        2
                             - Local part of the GTH pseudopotential:          2
                             - Non-local part of the GTH pseudopotential:      3


 MODULE QUICKSTEP:  ATOMIC COORDINATES IN angstrom

  Atom  Kind  Element       X           Y           Z          Z(eff)       Mass

       1     1 Fe  26   18.338942    0.000005    0.000049     16.00      55.8450
       2     1 Fe  26   15.275264   -0.000287   -0.000078     16.00      55.8450
       3     1 Fe  26   12.193964    0.000012    0.000331     16.00      55.8450
       4     1 Fe  26    9.160054    0.015950    0.000108     16.00      55.8450
       5     1 Fe  26    6.146393    0.008078    0.000029     16.00      55.8450
       6     1 Fe  26    3.083305   -0.000152   -0.000365     16.00      55.8450
       7     1 Fe  26    0.008218   -0.000330   -0.006562     16.00      55.8450
       8     2 O    8   18.333489   -0.013786    2.114131      6.00      15.9994
       9     2 O    8   18.331633    0.013672   -2.114355      6.00      15.9994
      10     2 O    8   19.860108   -1.261242   -0.013413      6.00      15.9994
      11     2 O    8   19.860013    1.260699    0.009295      6.00      15.9994
      12     2 O    8   15.307417   -0.010350    2.144762      6.00      15.9994
      13     2 O    8   15.306810    0.010215   -2.144545      6.00      15.9994
      14     2 O    8   16.816899   -1.259038   -0.011354      6.00      15.9994
      15     2 O    8   16.817141    1.258675    0.011778      6.00      15.9994
      16     2 O    8   12.270651    0.032024    2.159072      6.00      15.9994
      17     2 O    8   12.270225   -0.032473   -2.157784      6.00      15.9994
      18     2 O    8   13.779593   -1.256929    0.023041      6.00      15.9994
      19     2 O    8   13.782427    1.256846   -0.023384      6.00      15.9994
      20     2 O    8    9.189824    0.017223    2.212574      6.00      15.9994
      21     2 O    8    9.189988    0.028304   -2.213074      6.00      15.9994
      22     2 O    8   10.777877   -1.287785    0.015536      6.00      15.9994
      23     2 O    8   10.795313    1.304294   -0.014332      6.00      15.9994
      24     2 O    8    6.077715    0.031714    2.188503      6.00      15.9994
      25     2 O    8    6.078294   -0.011712   -2.188197      6.00      15.9994
      26     2 O    8    7.604157   -1.298760    0.012114      6.00      15.9994
      27     2 O    8    7.596142    1.324362   -0.011853      6.00      15.9994
      28     2 O    8    3.014466   -0.028864    2.158746      6.00      15.9994
      29     2 O    8    3.016094    0.028234   -2.160427      6.00      15.9994
      30     2 O    8    4.538834   -1.268273    0.006008      6.00      15.9994
      31     2 O    8    4.527278    1.277424   -0.006829      6.00      15.9994
      32     2 O    8   -0.021333   -0.014770    2.114476      6.00      15.9994
      33     2 O    8   -0.023113    0.014615   -2.129575      6.00      15.9994
      34     2 O    8    1.517311   -1.257283   -0.025895      6.00      15.9994
      35     2 O    8    1.515628    1.256750    0.011891      6.00      15.9994
      36     3 H    1   18.299731   -0.796537   -2.679192      1.00       1.0079
      37     3 H    1   18.270626    0.829143   -2.667980      1.00       1.0079
      38     3 H    1   18.271140   -0.829361    2.668588      1.00       1.0079
      39     3 H    1   18.296170    0.796535    2.678798      1.00       1.0079
      40     3 H    1   19.862524   -2.250080   -0.014902      1.00       1.0079
      41     3 H    1   19.863018    2.249525    0.011023      1.00       1.0079
      42     3 H    1   15.171923   -0.803998   -2.694298      1.00       1.0079
      43     3 H    1   15.086738    0.815701   -2.671888      1.00       1.0079
      44     3 H    1   15.093822   -0.817286    2.673757      1.00       1.0079
      45     3 H    1   15.163867    0.803392    2.692994      1.00       1.0079
      46     3 H    1   16.809430   -2.247887   -0.010207      1.00       1.0079
      47     3 H    1   16.809250    2.247512    0.009876      1.00       1.0079
      48     3 H    1   12.074268   -0.853548   -2.677458      1.00       1.0079
      49     3 H    1   12.043628    0.769519   -2.694333      1.00       1.0079
      50     3 H    1   12.055968   -0.771647    2.698581      1.00       1.0079
      51     3 H    1   12.061811    0.852017    2.675540      1.00       1.0079
      52     3 H    1   13.758297   -2.245127    0.020199      1.00       1.0079
      53     3 H    1   13.760624    2.244964   -0.019599      1.00       1.0079
      54     3 H    1    9.118284   -0.779285   -2.774080      1.00       1.0079
      55     3 H    1    9.123227    0.847820   -2.758802      1.00       1.0079
      56     3 H    1    9.126920   -0.799620    2.763280      1.00       1.0079
      57     3 H    1    9.113925    0.827420    2.768084      1.00       1.0079
      58     3 H    1   10.757225   -2.274930    0.019883      1.00       1.0079
      59     3 H    1   10.784567    2.291556   -0.020214      1.00       1.0079
      60     3 H    1    6.190107   -0.835135   -2.723315      1.00       1.0079
      61     3 H    1    6.241714    0.790660   -2.734494      1.00       1.0079
      62     3 H    1    6.230716   -0.771475    2.738299      1.00       1.0079
      63     3 H    1    6.199522    0.854960    2.720911      1.00       1.0079
      64     3 H    1    7.609734   -2.285518    0.014501      1.00       1.0079
      65     3 H    1    7.597579    2.311346   -0.014495      1.00       1.0079
      66     3 H    1    3.178243   -0.781556   -2.709025      1.00       1.0079
      67     3 H    1    3.254949    0.838765   -2.678149      1.00       1.0079
      68     3 H    1    3.242086   -0.840780    2.679413      1.00       1.0079
      69     3 H    1    3.186661    0.780336    2.704911      1.00       1.0079
      70     3 H    1    4.562946   -2.255801    0.002334      1.00       1.0079
      71     3 H    1    4.545679    2.265059   -0.003522      1.00       1.0079
      72     3 H    1    0.085817   -0.794540   -2.687276      1.00       1.0079
      73     3 H    1    0.100165    0.830374   -2.678538      1.00       1.0079
      74     3 H    1    0.093854   -0.830393    2.665794      1.00       1.0079
      75     3 H    1    0.088319    0.794434    2.672096      1.00       1.0079
      76     3 H    1    1.532341   -2.245814   -0.024901      1.00       1.0079
      77     3 H    1    1.531300    2.245227    0.011849      1.00       1.0079




 SCF PARAMETERS         Density guess:                                   RESTART
                        --------------------------------------------------------
                        max_scf:                                            1000
                        max_scf_history:                                       0
                        max_diis:                                              4
                        --------------------------------------------------------
                        eps_scf:                                        1.00E-06
                        eps_scf_history:                                0.00E+00
                        eps_diis:                                       1.00E-01
                        eps_eigval:                                     1.00E-05
                        --------------------------------------------------------
                        level_shift [a.u.]:                                 0.00
                        --------------------------------------------------------
                        Outer loop SCF in use 
                        No variables optimised in outer loop
                        eps_scf                                         1.00E-06
                        max_scf                                              500
                        No outer loop optimization
                        step_size                                       5.00E-01

 PW_GRID| Information for grid number                                          1
 PW_GRID| Grid distributed over                                    32 processors
 PW_GRID| Real space group dimensions                                    32    1
 PW_GRID| the grid is blocked:                                                NO
 PW_GRID| Cutoff [a.u.]                                                    325.0
 PW_GRID| spherical cutoff:                                                   NO
 PW_GRID|   Bounds   1           -165     164                Points:         330
 PW_GRID|   Bounds   2           -270     269                Points:         540
 PW_GRID|   Bounds   3           -270     269                Points:         540
 PW_GRID| Volume element (a.u.^3)  0.1837E-02     Volume (a.u.^3)    176783.5904
 PW_GRID| Grid span                                                    FULLSPACE
 PW_GRID|   Distribution                         Average         Max         Min
 PW_GRID|   G-Vectors                          3007125.0     3007290     3006960
 PW_GRID|   G-Rays                                9112.5        9113        9112
 PW_GRID|   Real Space Points                  3007125.0     3207600     2916000

 PW_GRID| Information for grid number                                          2
 PW_GRID| Grid distributed over                                    32 processors
 PW_GRID| Real space group dimensions                                    32    1
 PW_GRID| the grid is blocked:                                                NO
 PW_GRID| Cutoff [a.u.]                                                    108.3
 PW_GRID| spherical cutoff:                                                   NO
 PW_GRID|   Bounds   1            -94      94                Points:         189
 PW_GRID|   Bounds   2           -157     157                Points:         315
 PW_GRID|   Bounds   3           -157     157                Points:         315
 PW_GRID| Volume element (a.u.^3)  0.9427E-02     Volume (a.u.^3)    176783.5904
 PW_GRID| Grid span                                                    FULLSPACE
 PW_GRID|   Distribution                         Average         Max         Min
 PW_GRID|   G-Vectors                           586047.7      586278      585900
 PW_GRID|   G-Rays                                3100.8        3102        3100
 PW_GRID|   Real Space Points                   586047.7      595350      496125

 PW_GRID| Information for grid number                                          3
 PW_GRID| Grid distributed over                                    32 processors
 PW_GRID| Real space group dimensions                                    32    1
 PW_GRID| the grid is blocked:                                                NO
 PW_GRID| Cutoff [a.u.]                                                     36.1
 PW_GRID| spherical cutoff:                                                   NO
 PW_GRID|   Bounds   1            -55      54                Points:         110
 PW_GRID|   Bounds   2            -90      89                Points:         180
 PW_GRID|   Bounds   3            -90      89                Points:         180
 PW_GRID| Volume element (a.u.^3)  0.4960E-01     Volume (a.u.^3)    176783.5904
 PW_GRID| Grid span                                                    FULLSPACE
 PW_GRID|   Distribution                         Average         Max         Min
 PW_GRID|   G-Vectors                           111375.0      111540      111210
 PW_GRID|   G-Rays                                1012.5        1014        1011
 PW_GRID|   Real Space Points                   111375.0      129600       97200

 PW_GRID| Information for grid number                                          4
 PW_GRID| Grid distributed over                                    32 processors
 PW_GRID| Real space group dimensions                                    32    1
 PW_GRID| the grid is blocked:                                                NO
 PW_GRID| Cutoff [a.u.]                                                     12.0
 PW_GRID| spherical cutoff:                                                   NO
 PW_GRID|   Bounds   1            -31      31                Points:          63
 PW_GRID|   Bounds   2            -52      52                Points:         105
 PW_GRID|   Bounds   3            -52      52                Points:         105
 PW_GRID| Volume element (a.u.^3)  0.2545         Volume (a.u.^3)    176783.5904
 PW_GRID| Grid span                                                    FULLSPACE
 PW_GRID|   Distribution                         Average         Max         Min
 PW_GRID|   G-Vectors                            21705.5       21798       21609
 PW_GRID|   G-Rays                                 344.5         346         343
 PW_GRID|   Real Space Points                    21705.5       22050       11025

 PW_GRID| Information for grid number                                          5
 PW_GRID| Grid distributed over                                    32 processors
 PW_GRID| Real space group dimensions                                    32    1
 PW_GRID| the grid is blocked:                                                NO
 PW_GRID| Cutoff [a.u.]                                                      4.0
 PW_GRID| spherical cutoff:                                                   NO
 PW_GRID|   Bounds   1            -20      19                Points:          40
 PW_GRID|   Bounds   2            -30      29                Points:          60
 PW_GRID|   Bounds   3            -30      29                Points:          60
 PW_GRID| Volume element (a.u.^3)   1.228         Volume (a.u.^3)    176783.5904
 PW_GRID| Grid span                                                    FULLSPACE
 PW_GRID|   Distribution                         Average         Max         Min
 PW_GRID|   G-Vectors                             4500.0        4520        4480
 PW_GRID|   G-Rays                                 112.5         113         112
 PW_GRID|   Real Space Points                     4500.0        7200        3600

 PW_GRID| Information for grid number                                          6
 PW_GRID| Grid distributed over                                    32 processors
 PW_GRID| Real space group dimensions                                     4    8
 PW_GRID| the grid is blocked:                                                NO
 PW_GRID| Cutoff [a.u.]                                                      1.3
 PW_GRID| spherical cutoff:                                                   NO
 PW_GRID|   Bounds   1            -10      10                Points:          21
 PW_GRID|   Bounds   2            -17      17                Points:          35
 PW_GRID|   Bounds   3            -17      17                Points:          35
 PW_GRID| Volume element (a.u.^3)   6.872         Volume (a.u.^3)    176783.5904
 PW_GRID| Grid span                                                    FULLSPACE
 PW_GRID|   Distribution                         Average         Max         Min
 PW_GRID|   G-Vectors                              803.9         903         714
 PW_GRID|   G-Rays                                  38.3          43          34
 PW_GRID|   Real Space Points                      803.9        1050         700

 PW_GRID| Information for grid number                                          7
 PW_GRID| Grid distributed over                                    32 processors
 PW_GRID| Real space group dimensions                                     4    8
 PW_GRID| the grid is blocked:                                                NO
 PW_GRID| Cutoff [a.u.]                                                      0.4
 PW_GRID| spherical cutoff:                                                   NO
 PW_GRID|   Bounds   1             -7       6                Points:          14
 PW_GRID|   Bounds   2            -10       9                Points:          20
 PW_GRID|   Bounds   3            -10       9                Points:          20
 PW_GRID| Volume element (a.u.^3)   31.57         Volume (a.u.^3)    176783.5904
 PW_GRID| Grid span                                                    FULLSPACE
 PW_GRID|   Distribution                         Average         Max         Min
 PW_GRID|   G-Vectors                              175.0         182         168
 PW_GRID|   G-Rays                                  12.5          13          12
 PW_GRID|   Real Space Points                      175.0         240         120

 PW_GRID| Information for grid number                                          8
 PW_GRID| Grid distributed over                                    32 processors
 PW_GRID| Real space group dimensions                                     4    8
 PW_GRID| the grid is blocked:                                                NO
 PW_GRID| Cutoff [a.u.]                                                      0.1
 PW_GRID| spherical cutoff:                                                   NO
 PW_GRID|   Bounds   1             -3       3                Points:           7
 PW_GRID|   Bounds   2             -5       5                Points:          11
 PW_GRID|   Bounds   3             -5       5                Points:          11
 PW_GRID| Volume element (a.u.^3)   208.7         Volume (a.u.^3)    176783.5904
 PW_GRID| Grid span                                                    FULLSPACE
 PW_GRID|   Distribution                         Average         Max         Min
 PW_GRID|   G-Vectors                               26.5          42          14
 PW_GRID|   G-Rays                                   3.8           6           2
 PW_GRID|   Real Space Points                       26.5          44          11

 PW_GRID| Information for grid number                                          9
 PW_GRID| Grid distributed over                                    32 processors
 PW_GRID| Real space group dimensions                                     4    8
 PW_GRID| the grid is blocked:                                                NO
 PW_GRID| Cutoff [a.u.]                                                      0.0
 PW_GRID| spherical cutoff:                                                   NO
 PW_GRID|   Bounds   1             -2       2                Points:           5
 PW_GRID|   Bounds   2             -3       3                Points:           7
 PW_GRID|   Bounds   3             -3       3                Points:           7
 PW_GRID| Volume element (a.u.^3)   721.6         Volume (a.u.^3)    176783.5904
 PW_GRID| Grid span                                                    FULLSPACE
 PW_GRID|   Distribution                         Average         Max         Min
 PW_GRID|   G-Vectors                                7.7          15           0
 PW_GRID|   G-Rays                                   1.5           3           0
 PW_GRID|   Real Space Points                        7.7          14           0

 PW_GRID| Information for grid number                                         10
 PW_GRID| Grid distributed over                                    32 processors
 PW_GRID| Real space group dimensions                                     4    8
 PW_GRID| the grid is blocked:                                                NO
 PW_GRID| Cutoff [a.u.]                                                      0.0
 PW_GRID| spherical cutoff:                                                   NO
 PW_GRID|   Bounds   1             -1       1                Points:           3
 PW_GRID|   Bounds   2             -1       1                Points:           3
 PW_GRID|   Bounds   3             -1       1                Points:           3
 PW_GRID| Volume element (a.u.^3)   6548.         Volume (a.u.^3)    176783.5904
 PW_GRID| Grid span                                                    FULLSPACE
 PW_GRID|   Distribution                         Average         Max         Min
 PW_GRID|   G-Vectors                                0.8           3           0
 PW_GRID|   G-Rays                                   0.3           1           0
 PW_GRID|   Real Space Points                        0.8           3           0

 POISSON| Solver                                                        PERIODIC
 POISSON| Periodicity                                                        XYZ

 RS_GRID| Information for grid number                                          1
 RS_GRID|   Bounds   1           -165     164                Points:         330
 RS_GRID|   Bounds   2           -270     269                Points:         540
 RS_GRID|   Bounds   3           -270     269                Points:         540
 RS_GRID| Real space distribution over                                  4 groups
 RS_GRID| Real space distribution along direction                              2
 RS_GRID| Border size                                                         25
 RS_GRID| Real space distribution over                                  8 groups
 RS_GRID| Real space distribution along direction                              3
 RS_GRID| Border size                                                         25
 RS_GRID|   Distribution                         Average         Max         Min
 RS_GRID|   Planes                                 185.0         185         185
 RS_GRID|   Distribution                         Average         Max         Min
 RS_GRID|   Planes                                 117.5         118         117

 RS_GRID| Information for grid number                                          2
 RS_GRID|   Bounds   1            -94      94                Points:         189
 RS_GRID|   Bounds   2           -157     157                Points:         315
 RS_GRID|   Bounds   3           -157     157                Points:         315
 RS_GRID| Real space distribution over                                  4 groups
 RS_GRID| Real space distribution along direction                              2
 RS_GRID| Border size                                                         28
 RS_GRID| Real space distribution over                                  8 groups
 RS_GRID| Real space distribution along direction                              3
 RS_GRID| Border size                                                         28
 RS_GRID|   Distribution                         Average         Max         Min
 RS_GRID|   Planes                                 134.8         135         134
 RS_GRID|   Distribution                         Average         Max         Min
 RS_GRID|   Planes                                  95.4          96          95

 RS_GRID| Information for grid number                                          3
 RS_GRID|   Bounds   1            -55      54                Points:         110
 RS_GRID|   Bounds   2            -90      89                Points:         180
 RS_GRID|   Bounds   3            -90      89                Points:         180
 RS_GRID| Real space fully replicated
 RS_GRID| Group size                                                           1

 RS_GRID| Information for grid number                                          4
 RS_GRID|   Bounds   1            -31      31                Points:          63
 RS_GRID|   Bounds   2            -52      52                Points:         105
 RS_GRID|   Bounds   3            -52      52                Points:         105
 RS_GRID| Real space fully replicated
 RS_GRID| Group size                                                           1

 RS_GRID| Information for grid number                                          5
 RS_GRID|   Bounds   1            -20      19                Points:          40
 RS_GRID|   Bounds   2            -30      29                Points:          60
 RS_GRID|   Bounds   3            -30      29                Points:          60
 RS_GRID| Real space fully replicated
 RS_GRID| Group size                                                           1

 RS_GRID| Information for grid number                                          6
 RS_GRID|   Bounds   1            -10      10                Points:          21
 RS_GRID|   Bounds   2            -17      17                Points:          35
 RS_GRID|   Bounds   3            -17      17                Points:          35
 RS_GRID| Real space fully replicated
 RS_GRID| Group size                                                           1

 RS_GRID| Information for grid number                                          7
 RS_GRID|   Bounds   1             -7       6                Points:          14
 RS_GRID|   Bounds   2            -10       9                Points:          20
 RS_GRID|   Bounds   3            -10       9                Points:          20
 RS_GRID| Real space fully replicated
 RS_GRID| Group size                                                           1

 RS_GRID| Information for grid number                                          8
 RS_GRID|   Bounds   1             -3       3                Points:           7
 RS_GRID|   Bounds   2             -5       5                Points:          11
 RS_GRID|   Bounds   3             -5       5                Points:          11
 RS_GRID| Real space fully replicated
 RS_GRID| Group size                                                           1

 RS_GRID| Information for grid number                                          9
 RS_GRID|   Bounds   1             -2       2                Points:           5
 RS_GRID|   Bounds   2             -3       3                Points:           7
 RS_GRID|   Bounds   3             -3       3                Points:           7
 RS_GRID| Real space fully replicated
 RS_GRID| Group size                                                           1

 RS_GRID| Information for grid number                                         10
 RS_GRID|   Bounds   1             -1       1                Points:           3
 RS_GRID|   Bounds   2             -1       1                Points:           3
 RS_GRID|   Bounds   3             -1       1                Points:           3
 RS_GRID| Real space fully replicated
 RS_GRID| Group size                                                           1

 Spin 1

 Number of electrons:                                                        175
 Number of occupied orbitals:                                                175
 Number of molecular orbitals:                                               175

 Spin 2

 Number of electrons:                                                        141
 Number of occupied orbitals:                                                141
 Number of molecular orbitals:                                               141

 Number of orbital functions:                                                441
 Number of independent orbital functions:                                    441

 Extrapolation method: initial_guess


 SCF WAVEFUNCTION OPTIMIZATION

  ----------------------------------- OT ---------------------------------------
  Minimizer      : CG                  : conjugate gradient
  Preconditioner : FULL_KINETIC        : inversion of T + eS
  Precond_solver : DEFAULT
  Line search    : 2PNT                : 2 energies, one gradient
  stepsize       :    0.15000000                  energy_gap     :    0.20000000
  eps_taylor     :   0.10000E-15                  max_taylor     :             4
  ----------------------------------- OT ---------------------------------------

  Step     Update method      Time    Convergence         Total energy    Change
  ------------------------------------------------------------------------------

 *** WARNING in dft_plus_u.F:1457 :: DFT+U energy contibution is negative ***
 *** possibly due to unphysical Mulliken charges. Check your input, if    ***
 *** this warning persists or try a different method!                     ***

     1 OT CG       0.15E+00   10.2     0.00031189     -1335.5144618364 -1.34E+03

 *** WARNING in dft_plus_u.F:1457 :: DFT+U energy contibution is negative ***
 *** possibly due to unphysical Mulliken charges. Check your input, if    ***
 *** this warning persists or try a different method!                     ***

     2 OT LS       0.60E+00    6.5                    -1335.5163413109

 *** WARNING in dft_plus_u.F:1457 :: DFT+U energy contibution is negative ***
 *** possibly due to unphysical Mulliken charges. Check your input, if    ***
 *** this warning persists or try a different method!                     ***

     3 OT CG       0.60E+00   12.9     0.00016593     -1335.5201331382 -5.67E-03

 *** WARNING in dft_plus_u.F:1457 :: DFT+U energy contibution is negative ***
 *** possibly due to unphysical Mulliken charges. Check your input, if    ***
 *** this warning persists or try a different method!                     ***

     4 OT LS       0.90E+00    6.5                    -1335.5216660189

 *** WARNING in dft_plus_u.F:1457 :: DFT+U energy contibution is negative ***
 *** possibly due to unphysical Mulliken charges. Check your input, if    ***
 *** this warning persists or try a different method!                     ***

     5 OT CG       0.90E+00   12.7     0.00018808     -1335.5218556598 -1.72E-03

 *** WARNING in dft_plus_u.F:1457 :: DFT+U energy contibution is negative ***
 *** possibly due to unphysical Mulliken charges. Check your input, if    ***
 *** this warning persists or try a different method!                     ***

     6 OT LS       0.38E+00    6.6                    -1335.5210069587

 *** WARNING in dft_plus_u.F:1457 :: DFT+U energy contibution is negative ***
 *** possibly due to unphysical Mulliken charges. Check your input, if    ***
 *** this warning persists or try a different method!                     ***

     7 OT CG       0.38E+00   12.7     0.00010352     -1335.5227843721 -9.29E-04

 *** WARNING in dft_plus_u.F:1457 :: DFT+U energy contibution is negative ***
 *** possibly due to unphysical Mulliken charges. Check your input, if    ***
 *** this warning persists or try a different method!                     ***

     8 OT LS       0.35E+00    6.5                    -1335.5230409545

 *** WARNING in dft_plus_u.F:1457 :: DFT+U energy contibution is negative ***
 *** possibly due to unphysical Mulliken charges. Check your input, if    ***
 *** this warning persists or try a different method!                     ***

     9 OT CG       0.35E+00   12.8     0.00007418     -1335.5230429576 -2.59E-04

 *** WARNING in dft_plus_u.F:1457 :: DFT+U energy contibution is negative ***
 *** possibly due to unphysical Mulliken charges. Check your input, if    ***
 *** this warning persists or try a different method!                     ***

    10 OT LS       0.47E+00    6.5                    -1335.5232098844

 *** WARNING in dft_plus_u.F:1457 :: DFT+U energy contibution is negative ***
 *** possibly due to unphysical Mulliken charges. Check your input, if    ***
 *** this warning persists or try a different method!                     ***

    11 OT CG       0.47E+00   12.7     0.00006865     -1335.5232217346 -1.79E-04

 *** WARNING in dft_plus_u.F:1457 :: DFT+U energy contibution is negative ***
 *** possibly due to unphysical Mulliken charges. Check your input, if    ***
 *** this warning persists or try a different method!                     ***

    12 OT LS       0.46E+00    6.5                    -1335.5233729646

 *** WARNING in dft_plus_u.F:1457 :: DFT+U energy contibution is negative ***
 *** possibly due to unphysical Mulliken charges. Check your input, if    ***
 *** this warning persists or try a different method!                     ***

    13 OT CG       0.46E+00   12.8     0.00004513     -1335.5233729870 -1.51E-04

 *** WARNING in dft_plus_u.F:1457 :: DFT+U energy contibution is negative ***
 *** possibly due to unphysical Mulliken charges. Check your input, if    ***
 *** this warning persists or try a different method!                     ***

    14 OT LS       0.35E+00    6.5                    -1335.5234180688

 *** WARNING in dft_plus_u.F:1457 :: DFT+U energy contibution is negative ***
 *** possibly due to unphysical Mulliken charges. Check your input, if    ***
 *** this warning persists or try a different method!                     ***

    15 OT CG       0.35E+00   12.9     0.00003442     -1335.5234228792 -4.99E-05

 *** WARNING in dft_plus_u.F:1457 :: DFT+U energy contibution is negative ***
 *** possibly due to unphysical Mulliken charges. Check your input, if    ***
 *** this warning persists or try a different method!                     ***

    16 OT LS       0.58E+00    6.4                    -1335.5234634497

 *** WARNING in dft_plus_u.F:1457 :: DFT+U energy contibution is negative ***
 *** possibly due to unphysical Mulliken charges. Check your input, if    ***
 *** this warning persists or try a different method!                     ***

    17 OT CG       0.58E+00   15.3     0.00003921     -1335.5234711038 -4.82E-05

 *** WARNING in dft_plus_u.F:1457 :: DFT+U energy contibution is negative ***
 *** possibly due to unphysical Mulliken charges. Check your input, if    ***
 *** this warning persists or try a different method!                     ***

    18 OT LS       0.63E+00    7.1                    -1335.5235378033

 *** WARNING in dft_plus_u.F:1457 :: DFT+U energy contibution is negative ***
 *** possibly due to unphysical Mulliken charges. Check your input, if    ***
 *** this warning persists or try a different method!                     ***

    19 OT CG       0.63E+00   14.3     0.00004059     -1335.5235380908 -6.70E-05

 *** WARNING in dft_plus_u.F:1457 :: DFT+U energy contibution is negative ***
 *** possibly due to unphysical Mulliken charges. Check your input, if    ***
 *** this warning persists or try a different method!                     ***

    20 OT LS       0.50E+00    6.5                    -1335.5235915382

 *** WARNING in dft_plus_u.F:1457 :: DFT+U energy contibution is negative ***
 *** possibly due to unphysical Mulliken charges. Check your input, if    ***
 *** this warning persists or try a different method!                     ***

    21 OT CG       0.50E+00   12.8     0.00003733     -1335.5235952669 -5.72E-05

 *** WARNING in dft_plus_u.F:1457 :: DFT+U energy contibution is negative ***
 *** possibly due to unphysical Mulliken charges. Check your input, if    ***
 *** this warning persists or try a different method!                     ***

    22 OT LS       0.59E+00    6.5                    -1335.5236513036

 *** WARNING in dft_plus_u.F:1457 :: DFT+U energy contibution is negative ***
 *** possibly due to unphysical Mulliken charges. Check your input, if    ***
 *** this warning persists or try a different method!                     ***

    23 OT CG       0.59E+00   12.7     0.00004035     -1335.5236527521 -5.75E-05

 *** WARNING in dft_plus_u.F:1457 :: DFT+U energy contibution is negative ***
 *** possibly due to unphysical Mulliken charges. Check your input, if    ***
 *** this warning persists or try a different method!                     ***

    24 OT LS       0.55E+00    6.5                    -1335.5237149514

 *** WARNING in dft_plus_u.F:1457 :: DFT+U energy contibution is negative ***
 *** possibly due to unphysical Mulliken charges. Check your input, if    ***
 *** this warning persists or try a different method!                     ***

    25 OT CG       0.55E+00   12.9     0.00003561     -1335.5237152903 -6.25E-05

 *** WARNING in dft_plus_u.F:1457 :: DFT+U energy contibution is negative ***
 *** possibly due to unphysical Mulliken charges. Check your input, if    ***
 *** this warning persists or try a different method!                     ***

    26 OT LS       0.45E+00    6.8                    -1335.5237528140

 *** WARNING in dft_plus_u.F:1457 :: DFT+U energy contibution is negative ***
 *** possibly due to unphysical Mulliken charges. Check your input, if    ***
 *** this warning persists or try a different method!                     ***

    27 OT CG       0.45E+00   12.9     0.00002566     -1335.5237549128 -3.96E-05

 *** WARNING in dft_plus_u.F:1457 :: DFT+U energy contibution is negative ***
 *** possibly due to unphysical Mulliken charges. Check your input, if    ***
 *** this warning persists or try a different method!                     ***

    28 OT LS       0.42E+00    6.5                    -1335.5237741781

 *** WARNING in dft_plus_u.F:1457 :: DFT+U energy contibution is negative ***
 *** possibly due to unphysical Mulliken charges. Check your input, if    ***
 *** this warning persists or try a different method!                     ***

    29 OT CG       0.42E+00   12.7     0.00002144     -1335.5237742557 -1.93E-05

 *** WARNING in dft_plus_u.F:1457 :: DFT+U energy contibution is negative ***
 *** possibly due to unphysical Mulliken charges. Check your input, if    ***
 *** this warning persists or try a different method!                     ***

    30 OT LS       0.51E+00    6.5                    -1335.5237900079

 *** WARNING in dft_plus_u.F:1457 :: DFT+U energy contibution is negative ***
 *** possibly due to unphysical Mulliken charges. Check your input, if    ***
 *** this warning persists or try a different method!                     ***

    31 OT CG       0.51E+00   12.8     0.00001890     -1335.5237904575 -1.62E-05

 *** WARNING in dft_plus_u.F:1457 :: DFT+U energy contibution is negative ***
 *** possibly due to unphysical Mulliken charges. Check your input, if    ***
 *** this warning persists or try a different method!                     ***

    32 OT LS       0.39E+00    6.5                    -1335.5237994704

 *** WARNING in dft_plus_u.F:1457 :: DFT+U energy contibution is negative ***
 *** possibly due to unphysical Mulliken charges. Check your input, if    ***
 *** this warning persists or try a different method!                     ***

    33 OT CG       0.39E+00   12.8     0.00001408     -1335.5238002647 -9.81E-06

 *** WARNING in dft_plus_u.F:1457 :: DFT+U energy contibution is negative ***
 *** possibly due to unphysical Mulliken charges. Check your input, if    ***
 *** this warning persists or try a different method!                     ***

    34 OT LS       0.48E+00    6.6                    -1335.5238066736

 *** WARNING in dft_plus_u.F:1457 :: DFT+U energy contibution is negative ***
 *** possibly due to unphysical Mulliken charges. Check your input, if    ***
 *** this warning persists or try a different method!                     ***

    35 OT CG       0.48E+00   12.9     0.00001347     -1335.5238068832 -6.62E-06

 *** WARNING in dft_plus_u.F:1457 :: DFT+U energy contibution is negative ***
 *** possibly due to unphysical Mulliken charges. Check your input, if    ***
 *** this warning persists or try a different method!                     ***

    36 OT LS       0.56E+00    6.5                    -1335.5238138361

 *** WARNING in dft_plus_u.F:1457 :: DFT+U energy contibution is negative ***
 *** possibly due to unphysical Mulliken charges. Check your input, if    ***
 *** this warning persists or try a different method!                     ***

    37 OT CG       0.56E+00   12.9     0.00001394     -1335.5238139914 -7.11E-06

 *** WARNING in dft_plus_u.F:1457 :: DFT+U energy contibution is negative ***
 *** possibly due to unphysical Mulliken charges. Check your input, if    ***
 *** this warning persists or try a different method!                     ***

    38 OT LS       0.49E+00    6.5                    -1335.5238204447

 *** WARNING in dft_plus_u.F:1457 :: DFT+U energy contibution is negative ***
 *** possibly due to unphysical Mulliken charges. Check your input, if    ***
 *** this warning persists or try a different method!                     ***

    39 OT CG       0.49E+00   12.9     0.00001252     -1335.5238205986 -6.61E-06

 *** WARNING in dft_plus_u.F:1457 :: DFT+U energy contibution is negative ***
 *** possibly due to unphysical Mulliken charges. Check your input, if    ***
 *** this warning persists or try a different method!                     ***

    40 OT LS       0.52E+00    6.6                    -1335.5238262741

 *** WARNING in dft_plus_u.F:1457 :: DFT+U energy contibution is negative ***
 *** possibly due to unphysical Mulliken charges. Check your input, if    ***
 *** this warning persists or try a different method!                     ***

    41 OT CG       0.52E+00   12.8     0.00001182     -1335.5238262985 -5.70E-06

 *** WARNING in dft_plus_u.F:1457 :: DFT+U energy contibution is negative ***
 *** possibly due to unphysical Mulliken charges. Check your input, if    ***
 *** this warning persists or try a different method!                     ***

    42 OT LS       0.55E+00    6.5                    -1335.5238316700

 *** WARNING in dft_plus_u.F:1457 :: DFT+U energy contibution is negative ***
 *** possibly due to unphysical Mulliken charges. Check your input, if    ***
 *** this warning persists or try a different method!                     ***

    43 OT CG       0.55E+00   12.9     0.00001137     -1335.5238316862 -5.39E-06

 *** WARNING in dft_plus_u.F:1457 :: DFT+U energy contibution is negative ***
 *** possibly due to unphysical Mulliken charges. Check your input, if    ***
 *** this warning persists or try a different method!                     ***

    44 OT LS       0.65E+00    6.5                    -1335.5238373861

 *** WARNING in dft_plus_u.F:1457 :: DFT+U energy contibution is negative ***
 *** possibly due to unphysical Mulliken charges. Check your input, if    ***
 *** this warning persists or try a different method!                     ***

    45 OT CG       0.65E+00   12.8     0.00001096     -1335.5238375066 -5.82E-06

 *** WARNING in dft_plus_u.F:1457 :: DFT+U energy contibution is negative ***
 *** possibly due to unphysical Mulliken charges. Check your input, if    ***
 *** this warning persists or try a different method!                     ***

    46 OT LS       0.43E+00    6.6                    -1335.5238402183

 *** WARNING in dft_plus_u.F:1457 :: DFT+U energy contibution is negative ***
 *** possibly due to unphysical Mulliken charges. Check your input, if    ***
 *** this warning persists or try a different method!                     ***

    47 OT CG       0.43E+00   12.8     0.00000930     -1335.5238411155 -3.61E-06

 *** WARNING in dft_plus_u.F:1457 :: DFT+U energy contibution is negative ***
 *** possibly due to unphysical Mulliken charges. Check your input, if    ***
 *** this warning persists or try a different method!                     ***

    48 OT LS       0.45E+00    6.5                    -1335.5238438447

 *** WARNING in dft_plus_u.F:1457 :: DFT+U energy contibution is negative ***
 *** possibly due to unphysical Mulliken charges. Check your input, if    ***
 *** this warning persists or try a different method!                     ***

    49 OT CG       0.45E+00   12.9     0.00000844     -1335.5238438517 -2.74E-06

 *** WARNING in dft_plus_u.F:1457 :: DFT+U energy contibution is negative ***
 *** possibly due to unphysical Mulliken charges. Check your input, if    ***
 *** this warning persists or try a different method!                     ***

    50 OT LS       0.52E+00    6.5                    -1335.5238464096

 *** WARNING in dft_plus_u.F:1457 :: DFT+U energy contibution is negative ***
 *** possibly due to unphysical Mulliken charges. Check your input, if    ***
 *** this warning persists or try a different method!                     ***

    51 OT CG       0.52E+00   12.8     0.00000776     -1335.5238464570 -2.61E-06

 *** WARNING in dft_plus_u.F:1457 :: DFT+U energy contibution is negative ***
 *** possibly due to unphysical Mulliken charges. Check your input, if    ***
 *** this warning persists or try a different method!                     ***

    52 OT LS       0.51E+00    6.6                    -1335.5238485802

 *** WARNING in dft_plus_u.F:1457 :: DFT+U energy contibution is negative ***
 *** possibly due to unphysical Mulliken charges. Check your input, if    ***
 *** this warning persists or try a different method!                     ***

    53 OT CG       0.51E+00   12.8     0.00000703     -1335.5238485831 -2.13E-06

 *** WARNING in dft_plus_u.F:1457 :: DFT+U energy contibution is negative ***
 *** possibly due to unphysical Mulliken charges. Check your input, if    ***
 *** this warning persists or try a different method!                     ***

    54 OT LS       0.54E+00    6.5                    -1335.5238504392

 *** WARNING in dft_plus_u.F:1457 :: DFT+U energy contibution is negative ***
 *** possibly due to unphysical Mulliken charges. Check your input, if    ***
 *** this warning persists or try a different method!                     ***

    55 OT CG       0.54E+00   12.9     0.00000721     -1335.5238504477 -1.86E-06

 *** WARNING in dft_plus_u.F:1457 :: DFT+U energy contibution is negative ***
 *** possibly due to unphysical Mulliken charges. Check your input, if    ***
 *** this warning persists or try a different method!                     ***

    56 OT LS       0.49E+00    6.5                    -1335.5238522221

 *** WARNING in dft_plus_u.F:1457 :: DFT+U energy contibution is negative ***
 *** possibly due to unphysical Mulliken charges. Check your input, if    ***
 *** this warning persists or try a different method!                     ***

    57 OT CG       0.49E+00   12.9     0.00000682     -1335.5238522389 -1.79E-06

 *** WARNING in dft_plus_u.F:1457 :: DFT+U energy contibution is negative ***
 *** possibly due to unphysical Mulliken charges. Check your input, if    ***
[...]
 flops    19 x    19 x    15             33356400     100.0%      0.0%      0.0%
 flops    32 x    13 x    50             34070400     100.0%      0.0%      0.0%
 flops    32 x    13 x    51             34751808     100.0%      0.0%      0.0%
 flops     2 x    15 x     2             35138880     100.0%      0.0%      0.0%
 flops   111 x    13 x    55             35555520     100.0%      0.0%      0.0%
 flops   111 x    15 x    55             41025600     100.0%      0.0%      0.0%
 flops   110 x    13 x    13             42496740     100.0%      0.0%      0.0%
 flops    19 x     8 x    13             42602560     100.0%      0.0%      0.0%
 flops     8 x    19 x    13             42602560     100.0%      0.0%      0.0%
 flops    19 x    13 x     2             48508824     100.0%      0.0%      0.0%
 flops     2 x    13 x    19             48508824     100.0%      0.0%      0.0%
 flops    19 x     8 x    15             49156800     100.0%      0.0%      0.0%
 flops     8 x    19 x    15             49156800     100.0%      0.0%      0.0%
 flops    19 x    15 x     2             55636560     100.0%      0.0%      0.0%
 flops     2 x    15 x    19             55636560     100.0%      0.0%      0.0%
 flops   110 x    15 x    15             56578500     100.0%      0.0%      0.0%
 flops    45 x    13 x    55             70270200     100.0%      0.0%      0.0%
 flops     8 x     8 x    13             74314240     100.0%      0.0%      0.0%
 flops    19 x    13 x    19             76805638     100.0%      0.0%      0.0%
 flops     8 x    13 x     2             81699072     100.0%      0.0%      0.0%
 flops     2 x    13 x     8             81699072     100.0%      0.0%      0.0%
 flops    47 x    15 x    55             84684600     100.0%      0.0%      0.0%
 flops    47 x    15 x    32             85728000     100.0%      0.0%      0.0%
 flops    47 x    32 x    15             85728000     100.0%      0.0%      0.0%
 flops     8 x     8 x    15             85747200     100.0%      0.0%      0.0%
 flops    19 x    15 x    19             88091220     100.0%      0.0%      0.0%
 flops     8 x    15 x     2             93703680     100.0%      0.0%      0.0%
 flops     2 x    15 x     8             93703680     100.0%      0.0%      0.0%
 flops    45 x    32 x    13            101237760     100.0%      0.0%      0.0%
 flops    45 x    13 x    32            101237760     100.0%      0.0%      0.0%
 flops   110 x    13 x    55            105705600     100.0%      0.0%      0.0%
 flops    32 x    15 x    55            115315200     100.0%      0.0%      0.0%
 flops    64 x    15 x    55            115315200     100.0%      0.0%      0.0%
 flops    64 x    32 x    15            116736000     100.0%      0.0%      0.0%
 flops    32 x    15 x    32            116736000     100.0%      0.0%      0.0%
 flops    32 x    32 x    15            116736000     100.0%      0.0%      0.0%
 flops    64 x    15 x    32            116736000     100.0%      0.0%      0.0%
 flops   110 x    15 x    55            121968000     100.0%      0.0%      0.0%
 flops    19 x    13 x     8            129356864     100.0%      0.0%      0.0%
 flops     8 x    13 x    19            129356864     100.0%      0.0%      0.0%
 flops   111 x    13 x    32            140744448     100.0%      0.0%      0.0%
 flops   111 x    32 x    13            140744448     100.0%      0.0%      0.0%
 flops    19 x    15 x     8            148364160     100.0%      0.0%      0.0%
 flops     8 x    15 x    19            148364160     100.0%      0.0%      0.0%
 flops    32 x    13 x    55            149909760     100.0%      0.0%      0.0%
 flops    45 x    32 x    50            157248000     100.0%      0.0%      0.0%
 flops    45 x    32 x    51            160392960     100.0%      0.0%      0.0%
 flops   111 x    32 x    50            179020800     100.0%      0.0%      0.0%
 flops   111 x    32 x    51            182601216     100.0%      0.0%      0.0%
 flops   111 x    15 x    32            202996800     100.0%      0.0%      0.0%
 flops   111 x    32 x    15            202996800     100.0%      0.0%      0.0%
 flops    47 x    32 x    50            205296000     100.0%      0.0%      0.0%
 flops    47 x    32 x    51            209401920     100.0%      0.0%      0.0%
 flops    32 x    13 x    32            215973888     100.0%      0.0%      0.0%
 flops    32 x    32 x    13            215973888     100.0%      0.0%      0.0%
 flops     8 x    13 x     8            217864192     100.0%      0.0%      0.0%
 flops     2 x     2 x    32            228856320     100.0%      0.0%      0.0%
 flops     8 x    15 x     8            249876480     100.0%      0.0%      0.0%
 flops    64 x    32 x    50            279552000     100.0%      0.0%      0.0%
 flops    64 x    32 x    51            285143040     100.0%      0.0%      0.0%
 flops    19 x     2 x    32            353928960     100.0%      0.0%      0.0%
 flops     2 x    19 x    32            353928960     100.0%      0.0%      0.0%
 flops   110 x    32 x    13            418429440     100.0%      0.0%      0.0%
 flops   110 x    13 x    32            418429440     100.0%      0.0%      0.0%
 flops   110 x    32 x    50            532224000     100.0%      0.0%      0.0%
 flops   110 x    32 x    51            542868480     100.0%      0.0%      0.0%
 flops     8 x     2 x    32            596090880     100.0%      0.0%      0.0%
 flops     2 x     8 x    32            596090880     100.0%      0.0%      0.0%
 flops   110 x    32 x    15            603504000     100.0%      0.0%      0.0%
 flops   110 x    15 x    32            603504000     100.0%      0.0%      0.0%
 flops    32 x    32 x    50            615014400     100.0%      0.0%      0.0%
 flops    32 x    32 x    51            627314688     100.0%      0.0%      0.0%
 flops    19 x    19 x    32            640442880     100.0%      0.0%      0.0%
 flops     2 x    32 x     2            676472832     100.0%      0.0%      0.0%
 flops    45 x    32 x    55            691891200     100.0%      0.0%      0.0%
 flops   111 x    32 x    55            787691520     100.0%      0.0%      0.0%
 flops    47 x    32 x    55            903302400     100.0%      0.0%      0.0%
 flops    47 x    32 x    32            914432000     100.0%      0.0%      0.0%
 flops    19 x     8 x    32            943810560     100.0%      0.0%      0.0%
 flops     8 x    19 x    32            943810560     100.0%      0.0%      0.0%
 flops    45 x    32 x    32            996802560     100.0%      0.0%      0.0%
 flops    19 x    32 x     2           1071081984     100.0%      0.0%      0.0%
 flops     2 x    32 x    19           1071081984     100.0%      0.0%      0.0%
 flops    64 x    32 x    55           1230028800     100.0%      0.0%      0.0%
 flops    64 x    32 x    32           1245184000     100.0%      0.0%      0.0%
 flops     8 x     8 x    32           1646346240     100.0%      0.0%      0.0%
 flops    19 x    32 x    19           1695879808     100.0%      0.0%      0.0%
 flops     8 x    32 x     2           1803927552     100.0%      0.0%      0.0%
 flops     2 x    32 x     8           1803927552     100.0%      0.0%      0.0%
 flops   110 x    32 x    55           2341785600     100.0%      0.0%      0.0%
 flops    32 x    32 x    55           2706063360     100.0%      0.0%      0.0%
 flops    19 x    32 x     8           2856218624     100.0%      0.0%      0.0%
 flops     8 x    32 x    19           2856218624     100.0%      0.0%      0.0%
 flops    32 x    32 x    32           3371696128     100.0%      0.0%      0.0%
 flops   111 x    32 x    32           3551090688     100.0%      0.0%      0.0%
 flops     8 x    32 x     8           4810473472     100.0%      0.0%      0.0%
 flops   110 x    32 x    32          10557296640     100.0%      0.0%      0.0%
 flops inhomo. stacks                  5268466056     100.0%      0.0%      0.0%
 flops total                        71.348633E+09     100.0%      0.0%      0.0%
 flops max/rank                      3.886199E+09     100.0%      0.0%      0.0%
 matmuls inhomo. stacks                     28952     100.0%      0.0%      0.0%
 matmuls total                           14821568     100.0%      0.0%      0.0%
 number of processed stacks               1158440     100.0%      0.0%      0.0%
 average stack size                                    12.8       0.0       0.0
 marketing flops                    77.948002E+09
 -------------------------------------------------------------------------------
 # multiplications                           3033
 max memory usage/rank               1.695531E+09
 # max total images/rank                        2
 # max 3D layers                                1
 # MPI messages exchanged                 2038176
 MPI messages size (bytes):
  total size                        19.427897E+09
  min size                           0.000000E+00
  max size                          54.168000E+03
  average size                       9.532002E+03
 MPI breakdown and total messages size (bytes):
             size <=      128              756392                        0
       128 < size <=     8192              557592               3709452376
      8192 < size <=    32768              624512              10872186528
     32768 < size <=   131072               99680               4846466520
    131072 < size <=  4194304                   0                        0
   4194304 < size <= 16777216                   0                        0
  16777216 < size                               0                        0
 -------------------------------------------------------------------------------

 *** WARNING in dbcsr/mm/dbcsr_mm.F:268 :: Using a non-square number of ***
 *** MPI ranks might lead to poor performance.                          ***
 *** Used ranks: 32                                                     ***
 *** Suggested: 36 64                                                   ***

 -------------------------------------------------------------------------------

 MEMORY| Estimated peak process memory [MiB]                                1618

 -------------------------------------------------------------------------------
 ----                             MULTIGRID INFO                            ----
 -------------------------------------------------------------------------------
 count for grid        1:         973389          cutoff [a.u.]          325.00
 count for grid        2:         409480          cutoff [a.u.]          108.33
 count for grid        3:         252419          cutoff [a.u.]           36.11
 count for grid        4:          85743          cutoff [a.u.]           12.04
 count for grid        5:           2880          cutoff [a.u.]            4.01
 count for grid        6:              0          cutoff [a.u.]            1.34
 count for grid        7:              0          cutoff [a.u.]            0.45
 count for grid        8:              0          cutoff [a.u.]            0.15
 count for grid        9:              0          cutoff [a.u.]            0.05
 count for grid       10:              0          cutoff [a.u.]            0.02
 total gridlevel count  :        1723911

 -------------------------------------------------------------------------------
 -                                                                             -
 -                         MESSAGE PASSING PERFORMANCE                         -
 -                                                                             -
 -------------------------------------------------------------------------------

 ROUTINE             CALLS      AVE VOLUME [Bytes]
 MP_Group               35
 MP_Bcast             1296                 250887.
 MP_Allreduce        17814                    314.
 MP_Sync              1990
 MP_Alltoall         13670               24843595.
 MP_ISendRecv        81840                 160201.
 MP_Wait            352356
 MP_ISend           171886                 153940.
 MP_IRecv           172986                 152036.
 MP_Recv                84                  70560.
 MP_Memory          177964
 -------------------------------------------------------------------------------


 -------------------------------------------------------------------------------
 -                                                                             -
 -                           R E F E R E N C E S                               -
 -                                                                             -
 -------------------------------------------------------------------------------
 
 CP2K version 6.1, the CP2K developers group (2018).
 CP2K is freely available from https://www.cp2k.org/ .

 Schuett, Ole; Messmer, Peter; Hutter, Juerg; VandeVondele, Joost. 
 Electronic Structure Calculations on Graphics Processing Units, John Wiley & Sons, Ltd, 173-190 (2016). 
 GPU-Accelerated Sparse Matrix-Matrix Multiplication for Linear Scaling Density Functional Theory.
 http://dx.doi.org/10.1002/9781118670712.ch8


 Borstnik, U; VandeVondele, J; Weber, V; Hutter, J. 
 PARALLEL COMPUTING, 40 (5-6), 47-58 (2014). 
 Sparse matrix multiplication: The distributed block-compressed sparse
 row library.
 http://dx.doi.org/10.1016/j.parco.2014.03.012


 Hutter, J; Iannuzzi, M; Schiffmann, F; VandeVondele, J. 
 WILEY INTERDISCIPLINARY REVIEWS-COMPUTATIONAL MOLECULAR SCIENCE, 4 (1), 15-25 (2014). 
 CP2K: atomistic simulations of condensed matter systems.
 http://dx.doi.org/10.1002/wcms.1159


 Krack, M. 
 THEORETICAL CHEMISTRY ACCOUNTS, 114 (1-3), 145-152 (2005). 
 Pseudopotentials for H to Kr optimized for gradient-corrected
 exchange-correlation functionals.
 http://dx.doi.org/10.1007/s00214-005-0655-y


 VandeVondele, J; Krack, M; Mohamed, F; Parrinello, M; Chassaing, T;
 Hutter, J. COMPUTER PHYSICS COMMUNICATIONS, 167 (2), 103-128 (2005). 
 QUICKSTEP: Fast and accurate density functional calculations using a
 mixed Gaussian and plane waves approach.
 http://dx.doi.org/10.1016/j.cpc.2004.12.014


 Frigo, M; Johnson, SG. 
 PROCEEDINGS OF THE IEEE, 93 (2), 216-231 (2005). 
 The design and implementation of FFTW3.
 http://dx.doi.org/10.1109/JPROC.2004.840301


 VandeVondele, J; Hutter, J. 
 JOURNAL OF CHEMICAL PHYSICS, 118 (10), 4365-4369 (2003). 
 An efficient orbital transformation method for electronic structure
 calculations.
 http://dx.doi.org/10.1063/1.1543154


 Hartwigsen, C; Goedecker, S; Hutter, J. 
 PHYSICAL REVIEW B, 58 (7), 3641-3662 (1998). 
 Relativistic separable dual-space Gaussian pseudopotentials from H to Rn.
 http://dx.doi.org/10.1103/PhysRevB.58.3641


 Dudarev, SL; Botton, GA; Savrasov, SY; Humphreys, CJ; Sutton, AP. 
 PHYSICAL REVIEW B, 57 (3), 1505-1509 (1998). 
 Electron-energy-loss spectra and the structural stability of
 nickel oxide: An LSDA+U study.
 http://dx.doi.org/10.1103/PhysRevB.57.1505


 Lippert, G; Hutter, J; Parrinello, M. 
 MOLECULAR PHYSICS, 92 (3), 477-487 (1997). 
 A hybrid Gaussian and plane wave density functional scheme.
 http://dx.doi.org/10.1080/002689797170220


 Dudarev, SL; Manh, DN; Sutton, AP. 
 PHILOSOPHICAL MAGAZINE B, 75 (5), 613-628 (1997). 
 Effect of Mott-Hubbard correlations on the electronic
 structure and structural stability of uranium dioxide.
 http://dx.doi.org/10.1080/13642819708202343


 Goedecker, S; Teter, M; Hutter, J. 
 PHYSICAL REVIEW B, 54 (3), 1703-1710 (1996). 
 Separable dual-space Gaussian pseudopotentials.
 http://dx.doi.org/10.1103/PhysRevB.54.1703


 BECKE, AD. PHYSICAL REVIEW A, 38 (6), 3098-3100 (1988). 
 DENSITY-FUNCTIONAL EXCHANGE-ENERGY APPROXIMATION WITH CORRECT
 ASYMPTOTIC-BEHAVIOR.
 http://dx.doi.org/10.1103/PhysRevA.38.3098


 LEE, CT; YANG, WT; PARR, RG. 
 PHYSICAL REVIEW B, 37 (2), 785-789 (1988). 
 DEVELOPMENT OF THE COLLE-SALVETTI CORRELATION-ENERGY FORMULA INTO A
 FUNCTIONAL OF THE ELECTRON-DENSITY.
 http://dx.doi.org/10.1103/PhysRevB.37.785


 -------------------------------------------------------------------------------
 -                                                                             -
 -                                T I M I N G                                  -
 -                                                                             -
 -------------------------------------------------------------------------------
 SUBROUTINE                       CALLS  ASD         SELF TIME        TOTAL TIME
                                MAXIMUM       AVERAGE  MAXIMUM  AVERAGE  MAXIMUM
 CP2K                                 1  1.0    0.134    0.139 1068.117 1068.118
 qs_energies                          1  2.0    0.003    0.003 1066.428 1066.428
 scf_env_do_scf                       1  3.0    0.000    0.000 1061.995 1061.995
 scf_env_do_scf_inner_loop          109  4.0    0.004    0.009 1051.842 1051.854
 pw_transfer                       4888  9.3    0.287    0.329  777.806  783.241
 fft_wrap_pw1pw2                   4670 10.3    0.038    0.042  772.391  777.682
 qs_ks_update_qs_env                110  5.0    0.004    0.004  754.221  754.239
 rebuild_ks_matrix                  109  6.0    0.000    0.000  754.193  754.210
 qs_ks_build_kohn_sham_matrix       109  7.0    0.026    0.030  754.193  754.210
 fft_wrap_pw1pw2_330               1700 11.9   57.194   60.216  738.631  740.636
 qs_vxc_create                      109  8.0    0.002    0.002  599.424  600.452
 fft3d_ps                          4670 12.3  379.166  386.776  580.622  586.000
 xc_vxc_pw_create                    55  9.0    9.452   10.935  412.927  413.960
 xc_rho_set_and_dset_create         109 10.0   19.018   20.867  371.681  376.098
 qs_rho_update_rho                  110  5.0    0.001    0.001  306.473  306.486
 calculate_rho_elec                 220  6.0   12.248   29.901  306.472  306.485
 density_rs2pw                      220  7.0    0.019    0.020  281.306  290.107
 xc_exc_calc                         54  9.0    0.980    1.043  186.495  186.607
 x_to_yz                           1479 14.4   87.609   91.871  129.400  133.603
 sum_up_and_integrate                55  8.0    1.270    1.326  101.126  101.134
 integrate_v_rspace                 110  9.0    3.306    8.983   99.856   99.906
 rs_pw_transfer                    3304  9.0    0.027    0.032   92.307   97.876
 potential_pw2rs                    110 10.0    0.167    0.183   90.761   90.812
 mp_alltoall_z22v                  4670 14.3   76.588   87.890   76.588   87.890
 yz_to_x                           1541 12.6   37.065   38.151   71.839   78.090
 pw_scatter_p                      2029 13.5   74.767   78.078   74.767   78.078
 pw_gather_p                       2641 11.4   57.616   60.314   57.616   60.314
 rs_pw_transfer_RS2PW_330           222  9.0   19.768   21.478   39.400   46.411
 pw_derive                          984 10.7   42.726   44.553   42.726   44.553
 fft_wrap_pw1pw2_110                330 11.0    1.837    2.076   27.490   35.574
 mp_waitany                       23904 11.0   25.322   32.806   25.322   32.806
 pw_copy                           2300 10.8   26.254   27.759   26.254   27.759
 -------------------------------------------------------------------------------

 The number of warnings for this run is : 110
 
 -------------------------------------------------------------------------------
  **** **** ******  **  PROGRAM ENDED AT                 2019-08-11 09:50:05.672
 ***** ** ***  *** **   PROGRAM RAN ON            cpn-u22-32.cbls.ccr.buffalo.ed
 **    ****   ******    PROGRAM RAN BY                                  pavankum
 ***** **    ** ** **   PROGRAM PROCESS ID                                125423
  **** **  *******  **  PROGRAM STOPPED IN /projects/academic/mdupuis2/pavan/VAB
                                           _calculation/results_for_paper/3.1D_F
                                           e_7units/blyp_plusU5/def_opts/point_0
                                           .7
