 DBCSR| Multiplication driver                                               BLAS
 DBCSR| Multrec recursion limit                                              512
 DBCSR| Multiplication stack size                                           1000
 DBCSR| Maximum elements for images                                    UNLIMITED
 DBCSR| Multiplicative factor virtual images                                   1
 DBCSR| Multiplication size stacks                                             3
 DBCSR| Number of 3D layers                                               SINGLE
 DBCSR| Use MPI memory allocation                                              T
 DBCSR| Use RMA algorithm                                                      F
 DBCSR| Use Communication thread                                               T
 DBCSR| Communication thread load                                             87


  **** **** ******  **  PROGRAM STARTED AT               2020-03-22 18:50:29.079
 ***** ** ***  *** **   PROGRAM STARTED ON        cpn-u23-27.cbls.ccr.buffalo.ed
 **    ****   ******    PROGRAM STARTED BY                              pavankum
 ***** **    ** ** **   PROGRAM PROCESS ID                                150456
  **** **  *******  **  PROGRAM STARTED IN /projects/academic/mdupuis2/pavan/MOA
                                           /Hematite/1d-chain/HF/neutral

 CP2K| version string:                                          CP2K version 6.1
 CP2K| source code revision number:                                    svn:18464
 CP2K| cp2kflags: libint fftw3 libxc parallel mpi3 scalapack libderiv_max_am1=5 
 CP2K|            libint_max_am=6
 CP2K| is freely available from                            https://www.cp2k.org/
 CP2K| Program compiled at                          Fri Nov 30 14:17:09 EST 2018
 CP2K| Program compiled on                       srv-p22-12.cbls.ccr.buffalo.edu
 CP2K| Program compiled for                                                local
 CP2K| Data directory path    /projects/academic/mdupuis2/pavan/cp2k/cp2k-6.1/da
 CP2K| Input file name                                                 input.inp

 GLOBAL| Force Environment number                                              1
 GLOBAL| Basis set file name            /projects/academic/mdupuis2/pavan/BASIS_
 GLOBAL| Potential file name            /projects/academic/mdupuis2/pavan/POTENT
 GLOBAL| MM Potential file name                                     MM_POTENTIAL
 GLOBAL| Coordinate file name                                            opt.xyz
 GLOBAL| Method name                                                        CP2K
 GLOBAL| Project name                                                      p_fe_
 GLOBAL| Preferred FFT library                                             FFTW3
 GLOBAL| Preferred diagonalization lib.                                       SL
 GLOBAL| Run type                                                         ENERGY
 GLOBAL| All-to-all communication in single precision                          F
 GLOBAL| FFTs using library dependent lengths                                  T
 GLOBAL| Global print level                                               MEDIUM
 GLOBAL| Total number of message passing processes                           128
 GLOBAL| Number of threads for this process                                    1
 GLOBAL| This output is from process                                           0
 GLOBAL| CPU model name :  Intel(R) Xeon(R) Gold 6130 CPU @ 2.10GHz

 MEMORY| system memory details [Kb]
 MEMORY|                        rank 0           min           max       average
 MEMORY| MemTotal            196332632     196332628     196332632     196332631
 MEMORY| MemFree             188552236     187321968     188577948     188059101
 MEMORY| Buffers                494164        490352        499620        494539
 MEMORY| Cached                1300664       1257484       2458032       1740287
 MEMORY| Slab                   456076        456076        501708        477434
 MEMORY| SReclaimable           210084        210084        230508        218655
 MEMORY| MemLikelyFree       190557148     190452288     190557148     190512582


 *** Fundamental physical constants (SI units) ***

 *** Literature: B. J. Mohr and B. N. Taylor,
 ***             CODATA recommended values of the fundamental physical
 ***             constants: 2006, Web Version 5.1
 ***             http://physics.nist.gov/constants

 Speed of light in vacuum [m/s]                             2.99792458000000E+08
 Magnetic constant or permeability of vacuum [N/A**2]       1.25663706143592E-06
 Electric constant or permittivity of vacuum [F/m]          8.85418781762039E-12
 Planck constant (h) [J*s]                                  6.62606896000000E-34
 Planck constant (h-bar) [J*s]                              1.05457162825177E-34
 Elementary charge [C]                                      1.60217648700000E-19
 Electron mass [kg]                                         9.10938215000000E-31
 Electron g factor [ ]                                     -2.00231930436220E+00
 Proton mass [kg]                                           1.67262163700000E-27
 Fine-structure constant                                    7.29735253760000E-03
 Rydberg constant [1/m]                                     1.09737315685270E+07
 Avogadro constant [1/mol]                                  6.02214179000000E+23
 Boltzmann constant [J/K]                                   1.38065040000000E-23
 Atomic mass unit [kg]                                      1.66053878200000E-27
 Bohr radius [m]                                            5.29177208590000E-11

 *** Conversion factors ***

 [u] -> [a.u.]                                              1.82288848426455E+03
 [Angstrom] -> [Bohr] = [a.u.]                              1.88972613288564E+00
 [a.u.] = [Bohr] -> [Angstrom]                              5.29177208590000E-01
 [a.u.] -> [s]                                              2.41888432650478E-17
 [a.u.] -> [fs]                                             2.41888432650478E-02
 [a.u.] -> [J]                                              4.35974393937059E-18
 [a.u.] -> [N]                                              8.23872205491840E-08
 [a.u.] -> [K]                                              3.15774647902944E+05
 [a.u.] -> [kJ/mol]                                         2.62549961709828E+03
 [a.u.] -> [kcal/mol]                                       6.27509468713739E+02
 [a.u.] -> [Pa]                                             2.94210107994716E+13
 [a.u.] -> [bar]                                            2.94210107994716E+08
 [a.u.] -> [atm]                                            2.90362800883016E+08
 [a.u.] -> [eV]                                             2.72113838565563E+01
 [a.u.] -> [Hz]                                             6.57968392072181E+15
 [a.u.] -> [1/cm] (wave numbers)                            2.19474631370540E+05
 [a.u./Bohr**2] -> [1/cm]                                   5.14048714338585E+03
 

 CELL_TOP| Volume [angstrom^3]:                                        26196.625
 CELL_TOP| Vector a [angstrom    21.385     0.000     0.000    |a| =      21.385
 CELL_TOP| Vector b [angstrom     0.000    35.000     0.000    |b| =      35.000
 CELL_TOP| Vector c [angstrom     0.000     0.000    35.000    |c| =      35.000
 CELL_TOP| Angle (b,c), alpha [degree]:                                   90.000
 CELL_TOP| Angle (a,c), beta  [degree]:                                   90.000
 CELL_TOP| Angle (a,b), gamma [degree]:                                   90.000
 CELL_TOP| Numerically orthorhombic:                                         YES

 CELL| Volume [angstrom^3]:                                            26196.625
 CELL| Vector a [angstrom]:      21.385     0.000     0.000    |a| =      21.385
 CELL| Vector b [angstrom]:       0.000    35.000     0.000    |b| =      35.000
 CELL| Vector c [angstrom]:       0.000     0.000    35.000    |c| =      35.000
 CELL| Angle (b,c), alpha [degree]:                                       90.000
 CELL| Angle (a,c), beta  [degree]:                                       90.000
 CELL| Angle (a,b), gamma [degree]:                                       90.000
 CELL| Numerically orthorhombic:                                             YES

 CELL_REF| Volume [angstrom^3]:                                        26196.625
 CELL_REF| Vector a [angstrom    21.385     0.000     0.000    |a| =      21.385
 CELL_REF| Vector b [angstrom     0.000    35.000     0.000    |b| =      35.000
 CELL_REF| Vector c [angstrom     0.000     0.000    35.000    |c| =      35.000
 CELL_REF| Angle (b,c), alpha [degree]:                                   90.000
 CELL_REF| Angle (a,c), beta  [degree]:                                   90.000
 CELL_REF| Angle (a,b), gamma [degree]:                                   90.000
 CELL_REF| Numerically orthorhombic:                                         YES

 *******************************************************************************
 *******************************************************************************
 **                                                                           **
 **     #####                         ##              ##                      **
 **    ##   ##            ##          ##              ##                      **
 **   ##     ##                       ##            ######                    **
 **   ##     ##  ##   ##  ##   #####  ##  ##   ####   ##    #####    #####    **
 **   ##     ##  ##   ##  ##  ##      ## ##   ##      ##   ##   ##  ##   ##   **
 **   ##  ## ##  ##   ##  ##  ##      ####     ###    ##   ######   ######    **
 **    ##  ###   ##   ##  ##  ##      ## ##      ##   ##   ##       ##        **
 **     #######   #####   ##   #####  ##  ##  ####    ##    #####   ##        **
 **           ##                                                    ##        **
 **                                                                           **
 **                                                ... make the atoms dance   **
 **                                                                           **
 **            Copyright (C) by CP2K developers group (2000 - 2018)           **
 **                                                                           **
 *******************************************************************************

 DFT| Spin unrestricted (spin-polarized) Kohn-Sham calculation               UKS
 DFT| Multiplicity                                                            36
 DFT| Number of spin states                                                    2
 DFT| Charge                                                                   7
 DFT| Self-interaction correction (SIC)                                       NO
 DFT| Cutoffs: density                                              1.000000E-10
 DFT|          gradient                                             1.000000E-10
 DFT|          tau                                                  1.000000E-10
 DFT|          cutoff_smoothing_range                               0.000000E+00
 DFT| XC density smoothing                                                  NONE
 DFT| XC derivatives                                                          PW
 FUNCTIONAL| NO EXCHANGE-CORRELATION FUNCTIONAL USED.

 QS| Method:                                                                 GPW
 QS| Density plane wave grid type                        NON-SPHERICAL FULLSPACE
 QS| Number of grid levels:                                                    5
 QS| Density cutoff [a.u.]:                                                250.0
 QS| Multi grid cutoff [a.u.]: 1) grid level                               250.0
 QS|                           2) grid level                                83.3
 QS|                           3) grid level                                27.8
 QS|                           4) grid level                                 9.3
 QS|                           5) grid level                                 3.1
 QS| Grid level progression factor:                                          3.0
 QS| Relative density cutoff [a.u.]:                                        30.0
 QS| Consistent realspace mapping and integration 
 QS| Interaction thresholds: eps_pgf_orb:                                1.0E-10
 QS|                         eps_filter_matrix:                          0.0E+00
 QS|                         eps_core_charge:                            1.0E-14
 QS|                         eps_rho_gspace:                             1.0E-12
 QS|                         eps_rho_rspace:                             1.0E-12
 QS|                         eps_gvg_rspace:                             1.0E-06
 QS|                         eps_ppl:                                    1.0E-02
 QS|                         eps_ppnl:                                   1.0E-08


 ATOMIC KIND INFORMATION

  1. Atomic kind: Fe                                    Number of atoms:       7

     Orbital Basis Set                                                   mod-DZV

       Number of orbital shell sets:                                           1
       Number of orbital shells:                                               7
       Number of primitive Cartesian functions:                                6
       Number of Cartesian basis functions:                                   21
       Number of spherical basis functions:                                   19
       Norm type:                                                              2

       Normalised Cartesian orbitals:

                        Set   Shell   Orbital            Exponent    Coefficient

                          1       1    2s                8.424366      -0.545589
                                                         4.825220      -0.832336
                                                         2.198939       0.958990
                                                         0.891661       0.416271
                                                         0.316231       0.012631
                                                         0.103474      -0.013505

                          1       2    3s                8.424366      -0.106056
                                                         4.825220      -0.104587
                                                         2.198939       0.052318
                                                         0.891661      -0.169042
                                                         0.316231       0.061854
                                                         0.103474       0.122891

                          1       3    4s                8.424366      -0.333477
                                                         4.825220      -0.289267
                                                         2.198939      -0.125861
                                                         0.891661      -1.004000
                                                         0.316231       0.780774
                                                         0.103474      -0.187846

                          1       4    3px               8.424366      -1.658234
                                                         4.825220       1.618912
                                                         2.198939       1.969078
                                                         0.891661       0.523780
                                                         0.316231       0.024574
                                                         0.103474      -0.000798
                          1       4    3py               8.424366      -1.658234
                                                         4.825220       1.618912
                                                         2.198939       1.969078
                                                         0.891661       0.523780
                                                         0.316231       0.024574
                                                         0.103474      -0.000798
                          1       4    3pz               8.424366      -1.658234
                                                         4.825220       1.618912
                                                         2.198939       1.969078
                                                         0.891661       0.523780
                                                         0.316231       0.024574
                                                         0.103474      -0.000798

                          1       5    4px               8.424366      -0.105249
                                                         4.825220      -0.126123
                                                         2.198939      -0.349657
                                                         0.891661      -0.133470
                                                         0.316231       0.170554
                                                         0.103474       0.054381
                          1       5    4py               8.424366      -0.105249
                                                         4.825220      -0.126123
                                                         2.198939      -0.349657
                                                         0.891661      -0.133470
                                                         0.316231       0.170554
                                                         0.103474       0.054381
                          1       5    4pz               8.424366      -0.105249
                                                         4.825220      -0.126123
                                                         2.198939      -0.349657
                                                         0.891661      -0.133470
                                                         0.316231       0.170554
                                                         0.103474       0.054381

                          1       6    4dx2              8.424366       7.918298
                                                         4.825220       5.112663
                                                         2.198939       2.118663
                                                         0.891661       0.465004
                                                         0.316231       0.065856
                                                         0.103474       0.002769
                          1       6    4dxy              8.424366      13.714895
                                                         4.825220       8.855393
                                                         2.198939       3.669632
                                                         0.891661       0.805411
                                                         0.316231       0.114066
                                                         0.103474       0.004796
                          1       6    4dxz              8.424366      13.714895
                                                         4.825220       8.855393
                                                         2.198939       3.669632
                                                         0.891661       0.805411
                                                         0.316231       0.114066
                                                         0.103474       0.004796
                          1       6    4dy2              8.424366       7.918298
                                                         4.825220       5.112663
                                                         2.198939       2.118663
                                                         0.891661       0.465004
                                                         0.316231       0.065856
                                                         0.103474       0.002769
                          1       6    4dyz              8.424366      13.714895
                                                         4.825220       8.855393
                                                         2.198939       3.669632
                                                         0.891661       0.805411
                                                         0.316231       0.114066
                                                         0.103474       0.004796
                          1       6    4dz2              8.424366       7.918298
                                                         4.825220       5.112663
                                                         2.198939       2.118663
                                                         0.891661       0.465004
                                                         0.316231       0.065856
                                                         0.103474       0.002769

                          1       7    5dx2              8.424366      -4.223614
                                                         4.825220      -1.970584
                                                         2.198939      -1.543490
                                                         0.891661      -0.041381
                                                         0.316231       0.082821
                                                         0.103474       0.021964
                          1       7    5dxy              8.424366      -7.315513
                                                         4.825220      -3.413151
                                                         2.198939      -2.673404
                                                         0.891661      -0.071673
                                                         0.316231       0.143450
                                                         0.103474       0.038042
                          1       7    5dxz              8.424366      -7.315513
                                                         4.825220      -3.413151
                                                         2.198939      -2.673404
                                                         0.891661      -0.071673
                                                         0.316231       0.143450
                                                         0.103474       0.038042
                          1       7    5dy2              8.424366      -4.223614
                                                         4.825220      -1.970584
                                                         2.198939      -1.543490
                                                         0.891661      -0.041381
                                                         0.316231       0.082821
                                                         0.103474       0.021964
                          1       7    5dyz              8.424366      -7.315513
                                                         4.825220      -3.413151
                                                         2.198939      -2.673404
                                                         0.891661      -0.071673
                                                         0.316231       0.143450
                                                         0.103474       0.038042
                          1       7    5dz2              8.424366      -4.223614
                                                         4.825220      -1.970584
                                                         2.198939      -1.543490
                                                         0.891661      -0.041381
                                                         0.316231       0.082821
                                                         0.103474       0.021964

     GTH Potential information for                                  GTH-BLYP-q16

       Description:                       Goedecker-Teter-Hutter pseudopotential
                                           Goedecker et al., PRB 54, 1703 (1996)
                                          Hartwigsen et al., PRB 58, 3641 (1998)
                                                      Krack, TCA 114, 145 (2005)

       Gaussian exponent of the core charge distribution:               3.858025
       Electronic configuration (s p d ...):                           4   6   6

       Parameters of the local part of the GTH pseudopotential:

                          rloc        C1          C2          C3          C4
                        0.360000    7.011025   -0.222747

       Parameters of the non-local part of the GTH pseudopotential:

                   l      r(l)      h(i,j,l)

                   0    0.276205    0.611496    7.992357
                                    7.992357  -10.318089
                   1    0.247130   -8.710556    8.684169
                                    8.684169  -10.275248
                   2    0.223534  -12.411504

  2. Atomic kind: O                                     Number of atoms:      28

     Orbital Basis Set                                                   mod-DZV

       Number of orbital shell sets:                                           1
       Number of orbital shells:                                               4
       Number of primitive Cartesian functions:                                5
       Number of Cartesian basis functions:                                    8
       Number of spherical basis functions:                                    8
       Norm type:                                                              2

       Normalised Cartesian orbitals:

                        Set   Shell   Orbital            Exponent    Coefficient

                          1       1    2s               10.389228       0.396646
                                                         3.849621       0.208811
                                                         1.388401      -0.301641
                                                         0.496955      -0.274061
                                                         0.162492      -0.033677

                          1       2    3s               10.389228       0.303673
                                                         3.849621       0.240943
                                                         1.388401      -0.313066
                                                         0.496955      -0.043055
                                                         0.162492       0.213991

                          1       3    3px              10.389228      -1.530415
                                                         3.849621      -1.371928
                                                         1.388401      -0.761951
                                                         0.496955      -0.253695
                                                         0.162492      -0.035541
                          1       3    3py              10.389228      -1.530415
                                                         3.849621      -1.371928
                                                         1.388401      -0.761951
                                                         0.496955      -0.253695
                                                         0.162492      -0.035541
                          1       3    3pz              10.389228      -1.530415
                                                         3.849621      -1.371928
                                                         1.388401      -0.761951
                                                         0.496955      -0.253695
                                                         0.162492      -0.035541

                          1       4    4px              10.389228      -0.565392
                                                         3.849621      -0.038231
                                                         1.388401      -0.382373
                                                         0.496955       0.179070
                                                         0.162492       0.122714
                          1       4    4py              10.389228      -0.565392
                                                         3.849621      -0.038231
                                                         1.388401      -0.382373
                                                         0.496955       0.179070
                                                         0.162492       0.122714
                          1       4    4pz              10.389228      -0.565392
                                                         3.849621      -0.038231
                                                         1.388401      -0.382373
                                                         0.496955       0.179070
                                                         0.162492       0.122714

     GTH Potential information for                                   GTH-BLYP-q6

       Description:                       Goedecker-Teter-Hutter pseudopotential
                                           Goedecker et al., PRB 54, 1703 (1996)
                                          Hartwigsen et al., PRB 58, 3641 (1998)
                                                      Krack, TCA 114, 145 (2005)

       Gaussian exponent of the core charge distribution:               8.438331
       Electronic configuration (s p d ...):                               2   4

       Parameters of the local part of the GTH pseudopotential:

                          rloc        C1          C2          C3          C4
                        0.243420  -16.991892    2.566142

       Parameters of the non-local part of the GTH pseudopotential:

                   l      r(l)      h(i,j,l)

                   0    0.220831   18.388851
                   1    0.217201

  3. Atomic kind: H                                     Number of atoms:      42

     Orbital Basis Set                                                   mod-DZV

       Number of orbital shell sets:                                           1
       Number of orbital shells:                                               2
       Number of primitive Cartesian functions:                                5
       Number of Cartesian basis functions:                                    2
       Number of spherical basis functions:                                    2
       Norm type:                                                              2

       Normalised Cartesian orbitals:

                        Set   Shell   Orbital            Exponent    Coefficient

                          1       1    2s               10.068468      -0.133023
                                                         2.680223      -0.177618
                                                         0.791502      -0.258419
                                                         0.239116      -0.107525
                                                         0.082193      -0.014019

                          1       2    3s               10.068468       0.344673
                                                         2.680223       1.819821
                                                         0.791502      -0.999069
                                                         0.239116       0.017430
                                                         0.082193       0.082660

     GTH Potential information for                                   GTH-BLYP-q1

       Description:                       Goedecker-Teter-Hutter pseudopotential
                                           Goedecker et al., PRB 54, 1703 (1996)
                                          Hartwigsen et al., PRB 58, 3641 (1998)
                                                      Krack, TCA 114, 145 (2005)

       Gaussian exponent of the core charge distribution:              12.500000
       Electronic configuration (s p d ...):                                   1

       Parameters of the local part of the GTH pseudopotential:

                          rloc        C1          C2          C3          C4
                        0.200000   -4.195961    0.730498


 MOLECULE KIND INFORMATION


 All atoms are their own molecule, skipping detailed information


 TOTAL NUMBERS AND MAXIMUM NUMBERS

  Total number of            - Atomic kinds:                                   3
                             - Atoms:                                         77
                             - Shell sets:                                    77
                             - Shells:                                       245
                             - Primitive Cartesian functions:                392
                             - Cartesian basis functions:                    455
                             - Spherical basis functions:                    441

  Maximum angular momentum of- Orbital basis functions:                        2
                             - Local part of the GTH pseudopotential:          2
                             - Non-local part of the GTH pseudopotential:      3


 MODULE QUICKSTEP:  ATOMIC COORDINATES IN angstrom

  Atom  Kind  Element       X           Y           Z          Z(eff)       Mass

       1     1 Fe  26   18.334949    0.000001    0.000009     16.00      55.8450
       2     1 Fe  26   15.279001    0.000000    0.000011     16.00      55.8450
       3     1 Fe  26   12.223499    0.000000    0.000009     16.00      55.8450
       4     1 Fe  26    9.168901    0.000000   -0.000016     16.00      55.8450
       5     1 Fe  26    6.114461    0.000000   -0.000014     16.00      55.8450
       6     1 Fe  26    3.059956   -0.000000    0.000008     16.00      55.8450
       7     1 Fe  26    0.005441   -0.000001    0.000009     16.00      55.8450
       8     2 O    8   18.335710    0.000006    2.149228      6.00      15.9994
       9     2 O    8   18.335707   -0.000004   -2.149210      6.00      15.9994
      10     2 O    8   19.862768   -1.260345   -0.000001      6.00      15.9994
      11     2 O    8   19.862769    1.260345   -0.000005      6.00      15.9994
      12     2 O    8   15.277557    0.000006    2.149246      6.00      15.9994
      13     2 O    8   15.277555   -0.000005   -2.149223      6.00      15.9994
      14     2 O    8   16.806963   -1.260045    0.000006      6.00      15.9994
      15     2 O    8   16.806962    1.260046   -0.000009      6.00      15.9994
      16     2 O    8   12.222038   -0.000017    2.149875      6.00      15.9994
      17     2 O    8   12.222012    0.000018   -2.149847      6.00      15.9994
      18     2 O    8   13.751162   -1.260348   -0.000002      6.00      15.9994
      19     2 O    8   13.751162    1.260349    0.000002      6.00      15.9994
      20     2 O    8    9.169925   -0.000013    2.150980      6.00      15.9994
      21     2 O    8    9.169927    0.000013   -2.150993      6.00      15.9994
      22     2 O    8   10.696368   -1.260219   -0.000005      6.00      15.9994
      23     2 O    8   10.696368    1.260220    0.000021      6.00      15.9994
      24     2 O    8    6.113697   -0.000005    2.150278      6.00      15.9994
      25     2 O    8    6.113684    0.000002   -2.150265      6.00      15.9994
      26     2 O    8    7.641822   -1.260044    0.000013      6.00      15.9994
      27     2 O    8    7.641822    1.260045    0.000025      6.00      15.9994
      28     2 O    8    3.058947    0.000002    2.150711      6.00      15.9994
      29     2 O    8    3.058969   -0.000003   -2.150681      6.00      15.9994
      30     2 O    8    4.586992   -1.260063    0.000007      6.00      15.9994
      31     2 O    8    4.586991    1.260064    0.000008      6.00      15.9994
      32     2 O    8    0.006234    0.000001    2.149810      6.00      15.9994
      33     2 O    8    0.006240   -0.000003   -2.149787      6.00      15.9994
      34     2 O    8    1.532578   -1.260245    0.000000      6.00      15.9994
      35     2 O    8    1.532577    1.260244   -0.000002      6.00      15.9994
      36     3 H    1   18.336050   -0.795234   -2.698755      1.00       1.0079
      37     3 H    1   18.336050    0.795223   -2.698759      1.00       1.0079
      38     3 H    1   18.336054   -0.795239    2.698749      1.00       1.0079
      39     3 H    1   18.336051    0.795254    2.698746      1.00       1.0079
      40     3 H    1   19.863267   -2.222075    0.000005      1.00       1.0079
      41     3 H    1   19.863270    2.222075    0.000001      1.00       1.0079
      42     3 H    1   15.276335   -0.795240   -2.698772      1.00       1.0079
      43     3 H    1   15.276394    0.795225   -2.698779      1.00       1.0079
      44     3 H    1   15.276396   -0.795245    2.698771      1.00       1.0079
      45     3 H    1   15.276335    0.795260    2.698765      1.00       1.0079
      46     3 H    1   16.807008   -2.221749    0.000010      1.00       1.0079
      47     3 H    1   16.807007    2.221750   -0.000004      1.00       1.0079
      48     3 H    1   12.221069   -0.795007   -2.699884      1.00       1.0079
      49     3 H    1   12.221157    0.795053   -2.699869      1.00       1.0079
      50     3 H    1   12.221149   -0.795065    2.699854      1.00       1.0079
      51     3 H    1   12.221064    0.795021    2.699869      1.00       1.0079
      52     3 H    1   13.750723   -2.222076   -0.000000      1.00       1.0079
      53     3 H    1   13.750723    2.222077    0.000013      1.00       1.0079
      54     3 H    1    9.170358   -0.795017   -2.700805      1.00       1.0079
      55     3 H    1    9.170403    0.795049   -2.700797      1.00       1.0079
      56     3 H    1    9.170397   -0.795033    2.700813      1.00       1.0079
      57     3 H    1    9.170358    0.795000    2.700823      1.00       1.0079
      58     3 H    1   10.696097   -2.221971   -0.000012      1.00       1.0079
      59     3 H    1   10.696097    2.221972    0.000026      1.00       1.0079
      60     3 H    1    6.113163   -0.795035   -2.700155      1.00       1.0079
      61     3 H    1    6.113179    0.795041   -2.700154      1.00       1.0079
      62     3 H    1    6.113174   -0.795052    2.700152      1.00       1.0079
      63     3 H    1    6.113165    0.795042    2.700152      1.00       1.0079
      64     3 H    1    7.641785   -2.221715    0.000002      1.00       1.0079
      65     3 H    1    7.641786    2.221716    0.000012      1.00       1.0079
      66     3 H    1    3.057714   -0.794905   -2.700914      1.00       1.0079
      67     3 H    1    3.057714    0.794896   -2.700917      1.00       1.0079
      68     3 H    1    3.057720   -0.794911    2.700902      1.00       1.0079
      69     3 H    1    3.057723    0.794918    2.700899      1.00       1.0079
      70     3 H    1    4.587049   -2.221737    0.000011      1.00       1.0079
      71     3 H    1    4.587047    2.221737    0.000006      1.00       1.0079
      72     3 H    1    0.006791   -0.795021   -2.699745      1.00       1.0079
      73     3 H    1    0.006780    0.795015   -2.699745      1.00       1.0079
      74     3 H    1    0.006785   -0.795034    2.699734      1.00       1.0079
      75     3 H    1    0.006795    0.795036    2.699732      1.00       1.0079
      76     3 H    1    1.532888   -2.221990    0.000006      1.00       1.0079
      77     3 H    1    1.532886    2.221988    0.000001      1.00       1.0079




 SCF PARAMETERS         Density guess:                                   RESTART
                        --------------------------------------------------------
                        max_scf:                                            1000
                        max_scf_history:                                       0
                        max_diis:                                              4
                        --------------------------------------------------------
                        eps_scf:                                        1.00E-06
                        eps_scf_history:                                0.00E+00
                        eps_diis:                                       1.00E-01
                        eps_eigval:                                     1.00E-05
                        --------------------------------------------------------
                        level_shift [a.u.]:                                 0.00
                        --------------------------------------------------------
                        Outer loop SCF in use 
                        No variables optimised in outer loop
                        eps_scf                                         1.00E-06
                        max_scf                                              500
                        No outer loop optimization
                        step_size                                       5.00E-01

 PW_GRID| Information for grid number                                          1
 PW_GRID| Grid distributed over                                   128 processors
 PW_GRID| Real space group dimensions                                   128    1
 PW_GRID| the grid is blocked:                                                NO
 PW_GRID| Cutoff [a.u.]                                                    250.0
 PW_GRID| spherical cutoff:                                                   NO
 PW_GRID|   Bounds   1           -144     143                Points:         288
 PW_GRID|   Bounds   2           -240     239                Points:         480
 PW_GRID|   Bounds   3           -240     239                Points:         480
 PW_GRID| Volume element (a.u.^3)  0.2664E-02     Volume (a.u.^3)    176783.5904
 PW_GRID| Grid span                                                    FULLSPACE
 PW_GRID|   Distribution                         Average         Max         Min
 PW_GRID|   G-Vectors                           518400.0      518400      518400
 PW_GRID|   G-Rays                                1800.0        1800        1800
 PW_GRID|   Real Space Points                   518400.0      691200      460800

 PW_GRID| Information for grid number                                          2
 PW_GRID| Grid distributed over                                   128 processors
 PW_GRID| Real space group dimensions                                   128    1
 PW_GRID| the grid is blocked:                                                NO
 PW_GRID| Cutoff [a.u.]                                                     83.3
 PW_GRID| spherical cutoff:                                                   NO
 PW_GRID|   Bounds   1            -84      83                Points:         168
 PW_GRID|   Bounds   2           -137     137                Points:         275
 PW_GRID|   Bounds   3           -137     137                Points:         275
 PW_GRID| Volume element (a.u.^3)  0.1391E-01     Volume (a.u.^3)    176783.5904
 PW_GRID| Grid span                                                    FULLSPACE
 PW_GRID|   Distribution                         Average         Max         Min
 PW_GRID|   G-Vectors                            99257.8       99456       99120
 PW_GRID|   G-Rays                                 590.8         592         590
 PW_GRID|   Real Space Points                    99257.8      151250       75625

 PW_GRID| Information for grid number                                          3
 PW_GRID| Grid distributed over                                   128 processors
 PW_GRID| Real space group dimensions                                     8   16
 PW_GRID| the grid is blocked:                                                NO
 PW_GRID| Cutoff [a.u.]                                                     27.8
 PW_GRID| spherical cutoff:                                                   NO
 PW_GRID|   Bounds   1            -48      47                Points:          96
 PW_GRID|   Bounds   2            -80      79                Points:         160
 PW_GRID|   Bounds   3            -80      79                Points:         160
 PW_GRID| Volume element (a.u.^3)  0.7193E-01     Volume (a.u.^3)    176783.5904
 PW_GRID| Grid span                                                    FULLSPACE
 PW_GRID|   Distribution                         Average         Max         Min
 PW_GRID|   G-Vectors                            19200.0       19296       19104
 PW_GRID|   G-Rays                                 200.0         201         199
 PW_GRID|   Real Space Points                    19200.0       19200       19200

 PW_GRID| Information for grid number                                          4
 PW_GRID| Grid distributed over                                   128 processors
 PW_GRID| Real space group dimensions                                     8   16
 PW_GRID| the grid is blocked:                                                NO
 PW_GRID| Cutoff [a.u.]                                                      9.3
 PW_GRID| spherical cutoff:                                                   NO
 PW_GRID|   Bounds   1            -27      27                Points:          55
 PW_GRID|   Bounds   2            -48      47                Points:          96
 PW_GRID|   Bounds   3            -48      47                Points:          96
 PW_GRID| Volume element (a.u.^3)  0.3488         Volume (a.u.^3)    176783.5904
 PW_GRID| Grid span                                                    FULLSPACE
 PW_GRID|   Distribution                         Average         Max         Min
 PW_GRID|   G-Vectors                             3960.0        4015        3905
 PW_GRID|   G-Rays                                  72.0          73          71
 PW_GRID|   Real Space Points                     3960.0        4032        3456

 PW_GRID| Information for grid number                                          5
 PW_GRID| Grid distributed over                                   128 processors
 PW_GRID| Real space group dimensions                                     8   16
 PW_GRID| the grid is blocked:                                                NO
 PW_GRID| Cutoff [a.u.]                                                      3.1
 PW_GRID| spherical cutoff:                                                   NO
 PW_GRID|   Bounds   1            -16      15                Points:          32
 PW_GRID|   Bounds   2            -27      26                Points:          54
 PW_GRID|   Bounds   3            -27      26                Points:          54
 PW_GRID| Volume element (a.u.^3)   1.895         Volume (a.u.^3)    176783.5904
 PW_GRID| Grid span                                                    FULLSPACE
 PW_GRID|   Distribution                         Average         Max         Min
 PW_GRID|   G-Vectors                              729.0         768         672
 PW_GRID|   G-Rays                                  22.8          24          21
 PW_GRID|   Real Space Points                      729.0         864         648

 POISSON| Solver                                                        PERIODIC
 POISSON| Periodicity                                                        XYZ

 RS_GRID| Information for grid number                                          1
 RS_GRID|   Bounds   1           -144     143                Points:         288
 RS_GRID|   Bounds   2           -240     239                Points:         480
 RS_GRID|   Bounds   3           -240     239                Points:         480
 RS_GRID| Real space distribution over                                  4 groups
 RS_GRID| Real space distribution along direction                              1
 RS_GRID| Border size                                                         26
 RS_GRID| Real space distribution over                                  4 groups
 RS_GRID| Real space distribution along direction                              2
 RS_GRID| Border size                                                         26
 RS_GRID| Real space distribution over                                  8 groups
 RS_GRID| Real space distribution along direction                              3
 RS_GRID| Border size                                                         26
 RS_GRID|   Distribution                         Average         Max         Min
 RS_GRID|   Planes                                 124.0         124         124
 RS_GRID|   Distribution                         Average         Max         Min
 RS_GRID|   Planes                                 172.0         172         172
 RS_GRID|   Distribution                         Average         Max         Min
 RS_GRID|   Planes                                 112.0         112         112

 RS_GRID| Information for grid number                                          2
 RS_GRID|   Bounds   1            -84      83                Points:         168
 RS_GRID|   Bounds   2           -137     137                Points:         275
 RS_GRID|   Bounds   3           -137     137                Points:         275
 RS_GRID| Real space distribution over                                  4 groups
 RS_GRID| Real space distribution along direction                              1
 RS_GRID| Border size                                                         27
 RS_GRID| Real space distribution over                                  4 groups
 RS_GRID| Real space distribution along direction                              2
 RS_GRID| Border size                                                         27
 RS_GRID| Real space distribution over                                  8 groups
 RS_GRID| Real space distribution along direction                              3
 RS_GRID| Border size                                                         27
 RS_GRID|   Distribution                         Average         Max         Min
 RS_GRID|   Planes                                  96.0          96          96
 RS_GRID|   Distribution                         Average         Max         Min
 RS_GRID|   Planes                                 122.8         123         122
 RS_GRID|   Distribution                         Average         Max         Min
 RS_GRID|   Planes                                  88.4          89          88

 RS_GRID| Information for grid number                                          3
 RS_GRID|   Bounds   1            -48      47                Points:          96
 RS_GRID|   Bounds   2            -80      79                Points:         160
 RS_GRID|   Bounds   3            -80      79                Points:         160
 RS_GRID| Real space fully replicated
 RS_GRID| Group size                                                           1

 RS_GRID| Information for grid number                                          4
 RS_GRID|   Bounds   1            -27      27                Points:          55
 RS_GRID|   Bounds   2            -48      47                Points:          96
 RS_GRID|   Bounds   3            -48      47                Points:          96
 RS_GRID| Real space fully replicated
 RS_GRID| Group size                                                           1

 RS_GRID| Information for grid number                                          5
 RS_GRID|   Bounds   1            -16      15                Points:          32
 RS_GRID|   Bounds   2            -27      26                Points:          54
 RS_GRID|   Bounds   3            -27      26                Points:          54
 RS_GRID| Real space fully replicated
 RS_GRID| Group size                                                           1

  HFX_INFO| Replica ID:                                                        1
  HFX_INFO| EPS_SCHWARZ:                                                 1.0E-10
  HFX_INFO| EPS_SCHWARZ_FORCES                                           1.0E-06
  HFX_INFO| EPS_STORAGE_SCALING:                                         1.0E+00
  HFX_INFO| NBINS:                                                            64
  HFX_INFO| BLOCK_SIZE:                                                        1
  HFX_INFO| FRACTION:                                               1.0000000000
  HFX_INFO| Interaction Potential:                                     TRUNCATED
  HFX_INFO| Cutoff Radius [angstrom]:                              10.6711000000
  HFX_INFO| NUMBER_OF_SHELLS:                                               AUTO
  HFX_INFO| Number of periodic shells considered:                             -1
  HFX_INFO| Number of periodic cells considered:                              27


 Spin 1

 Number of electrons:                                                        175
 Number of occupied orbitals:                                                175
 Number of molecular orbitals:                                               175

 Spin 2

 Number of electrons:                                                        140
 Number of occupied orbitals:                                                140
 Number of molecular orbitals:                                               140

 Number of orbital functions:                                                441
 Number of independent orbital functions:                                    441

 Extrapolation method: initial_guess


 SCF WAVEFUNCTION OPTIMIZATION

  ----------------------------------- OT ---------------------------------------
  Minimizer      : CG                  : conjugate gradient
  Preconditioner : FULL_KINETIC        : inversion of T + eS
  Precond_solver : DEFAULT
  Line search    : 2PNT                : 2 energies, one gradient
  stepsize       :    0.15000000                  energy_gap     :    0.20000000
  eps_taylor     :   0.10000E-15                  max_taylor     :             4
  ----------------------------------- OT ---------------------------------------

  Step     Update method      Time    Convergence         Total energy    Change
  ------------------------------------------------------------------------------

  HFX_MEM_INFO| Est. max. program size before HFX [MiB]:                     329
  HFX_MEM_INFO| Number of cart. primitive ERI's calculated:          75539351846
  HFX_MEM_INFO| Number of sph. ERI's calculated:                      4828956058
  HFX_MEM_INFO| Number of sph. ERI's stored in-core:                  4828956058
  HFX_MEM_INFO| Number of sph. ERI's stored on disk:                           0
  HFX_MEM_INFO| Number of sph. ERI's calculated on the fly:                    0
  HFX_MEM_INFO| Total memory consumption ERI's RAM [MiB]:                  12376
  HFX_MEM_INFO| Whereof max-vals [MiB]:                                        4
  HFX_MEM_INFO| Total compression factor ERI's RAM:                         2.98
  HFX_MEM_INFO| Total memory consumption ERI's disk [MiB]:                     0
  HFX_MEM_INFO| Total compression factor ERI's disk:                        0.00
  HFX_MEM_INFO| Size of density/Fock matrix [MiB]:                             0
  HFX_MEM_INFO| Size of buffers [MiB]:                                         1
  HFX_MEM_INFO| Number of periodic image cells considered:                    27
  HFX_MEM_INFO| Est. max. program size after HFX  [MiB]:                     431

     1 OT CG       0.15E+00   62.9     0.00000069     -1322.2242972731 -1.32E+03

  *** SCF run converged in     1 steps ***


  Electronic density on regular grids:       -314.9999999998        0.0000000002
  Core density on regular grids:              321.9999999999       -0.0000000001
  Total charge density on r-space grids:        7.0000000001
  Total charge density g-space grids:           7.0000000001

  Overlap energy of the core charge distribution:               0.00000098501099
  Self energy of the core charge distribution:              -2631.59580429473499
  Core Hamiltonian energy:                                    745.36917262701843
  Hartree energy:                                             756.00902729793654
  Exchange-correlation energy:                                  0.00000000000000
  Hartree-Fock Exchange energy:                              -192.00669388830289

  Total energy:                                             -1322.22429727307190

  outer SCF iter =    1 RMS gradient =   0.69E-06 energy =      -1322.2242972731
  outer SCF loop converged in   1 iterations or    1 steps


  Integrated absolute spin density  :                              35.2881478116
  Ideal and single determinant S**2 :                  323.750000     323.792300

 !-----------------------------------------------------------------------------!
                     Mulliken Population Analysis

 #  Atom  Element  Kind  Atomic population (alpha,beta) Net charge  Spin moment
       1     Fe       1         9.416036     4.674504     1.909460     4.741532
       2     Fe       1         9.416038     4.674504     1.909457     4.741534
       3     Fe       1         9.416050     4.674592     1.909358     4.741458
       4     Fe       1         9.416023     4.674563     1.909414     4.741459
       5     Fe       1         9.416020     4.674591     1.909389     4.741429
       6     Fe       1         9.416010     4.674577     1.909412     4.741433
       7     Fe       1         9.416062     4.674618     1.909320     4.741444
       8     O        2         3.314686     3.292660    -0.607346     0.022026
       9     O        2         3.314683     3.292657    -0.607340     0.022026
      10     O        2         3.509445     3.405910    -0.915355     0.103535
      11     O        2         3.509445     3.405910    -0.915355     0.103536
      12     O        2         3.314694     3.292670    -0.607364     0.022025
      13     O        2         3.314691     3.292667    -0.607357     0.022024
      14     O        2         3.509443     3.405895    -0.915338     0.103549
      15     O        2         3.509443     3.405895    -0.915338     0.103549
      16     O        2         3.314732     3.292759    -0.607491     0.021973
      17     O        2         3.314738     3.292765    -0.607503     0.021973
      18     O        2         3.509446     3.405916    -0.915363     0.103530
      19     O        2         3.509446     3.405916    -0.915363     0.103530
      20     O        2         3.314691     3.292748    -0.607439     0.021943
      21     O        2         3.314703     3.292763    -0.607466     0.021940
      22     O        2         3.509417     3.405812    -0.915228     0.103605
      23     O        2         3.509417     3.405812    -0.915228     0.103605
      24     O        2         3.314681     3.292725    -0.607406     0.021956
      25     O        2         3.314687     3.292711    -0.607398     0.021976
      26     O        2         3.509402     3.405750    -0.915153     0.103652
      27     O        2         3.509402     3.405751    -0.915153     0.103652
      28     O        2         3.314728     3.292795    -0.607524     0.021933
      29     O        2         3.314736     3.292805    -0.607541     0.021931
      30     O        2         3.509393     3.405747    -0.915141     0.103646
      31     O        2         3.509393     3.405747    -0.915141     0.103646
      32     O        2         3.314708     3.292729    -0.607437     0.021979
      33     O        2         3.314708     3.292730    -0.607438     0.021979
      34     O        2         3.509422     3.405820    -0.915242     0.103602
      35     O        2         3.509422     3.405820    -0.915242     0.103602
      36     H        3         0.320955     0.320387     0.358658     0.000567
      37     H        3         0.320955     0.320388     0.358658     0.000567
      38     H        3         0.320953     0.320386     0.358661     0.000567
      39     H        3         0.320953     0.320386     0.358662     0.000567
      40     H        3         0.325903     0.323342     0.350755     0.002560
      41     H        3         0.325903     0.323342     0.350755     0.002560
      42     H        3         0.320952     0.320385     0.358662     0.000567
      43     H        3         0.320953     0.320386     0.358662     0.000567
      44     H        3         0.320951     0.320384     0.358666     0.000567
      45     H        3         0.320950     0.320383     0.358666     0.000567
      46     H        3         0.325922     0.323368     0.350711     0.002554
      47     H        3         0.325922     0.323367     0.350711     0.002554
      48     H        3         0.320971     0.320401     0.358628     0.000570
      49     H        3         0.320971     0.320401     0.358628     0.000570
      50     H        3         0.320974     0.320405     0.358621     0.000569
      51     H        3         0.320974     0.320405     0.358620     0.000569
      52     H        3         0.325902     0.323342     0.350755     0.002560
      53     H        3         0.325903     0.323342     0.350755     0.002560
      54     H        3         0.321014     0.320452     0.358534     0.000562
      55     H        3         0.321013     0.320452     0.358535     0.000562
      56     H        3         0.321022     0.320463     0.358515     0.000558
      57     H        3         0.321022     0.320464     0.358514     0.000558
      58     H        3         0.325871     0.323299     0.350830     0.002572
      59     H        3         0.325871     0.323299     0.350830     0.002572
      60     H        3         0.320987     0.320420     0.358592     0.000567
      61     H        3         0.320987     0.320420     0.358592     0.000567
      62     H        3         0.320991     0.320420     0.358589     0.000571
      63     H        3         0.320991     0.320421     0.358588     0.000571
      64     H        3         0.325880     0.323313     0.350807     0.002568
      65     H        3         0.325880     0.323313     0.350807     0.002568
      66     H        3         0.321000     0.320430     0.358570     0.000569
      67     H        3         0.321000     0.320430     0.358570     0.000569
      68     H        3         0.321004     0.320437     0.358559     0.000568
      69     H        3         0.321004     0.320437     0.358559     0.000568
      70     H        3         0.325890     0.323321     0.350789     0.002569
      71     H        3         0.325890     0.323321     0.350789     0.002569
      72     H        3         0.320983     0.320414     0.358603     0.000569
      73     H        3         0.320983     0.320414     0.358603     0.000569
      74     H        3         0.320983     0.320415     0.358602     0.000568
      75     H        3         0.320983     0.320415     0.358602     0.000568
      76     H        3         0.325870     0.323297     0.350834     0.002573
      77     H        3         0.325870     0.323297     0.350834     0.002573
 # Total charge and spin      175.000000   140.000000     7.000000    35.000000

 !-----------------------------------------------------------------------------!

 !-----------------------------------------------------------------------------!
                           Hirshfeld Charges

  #Atom  Element  Kind  Ref Charge     Population       Spin moment  Net charge
      1       Fe     1      16.000   10.746   6.016            4.730     -0.762
      2       Fe     1      16.000   10.746   6.016            4.730     -0.762
      3       Fe     1      16.000   10.746   6.016            4.730     -0.762
      4       Fe     1      16.000   10.746   6.016            4.730     -0.761
      5       Fe     1      16.000   10.746   6.016            4.730     -0.762
      6       Fe     1      16.000   10.746   6.016            4.730     -0.762
      7       Fe     1      16.000   10.746   6.016            4.730     -0.762
      8       O      2       6.000    3.369   3.342            0.026     -0.711
      9       O      2       6.000    3.369   3.342            0.026     -0.711
     10       O      2       6.000    3.156   3.051            0.105     -0.206
     11       O      2       6.000    3.156   3.051            0.105     -0.206
     12       O      2       6.000    3.369   3.342            0.026     -0.711
     13       O      2       6.000    3.369   3.342            0.026     -0.711
     14       O      2       6.000    3.156   3.051            0.105     -0.206
     15       O      2       6.000    3.156   3.051            0.105     -0.206
     16       O      2       6.000    3.369   3.343            0.026     -0.712
     17       O      2       6.000    3.369   3.343            0.026     -0.712
     18       O      2       6.000    3.156   3.051            0.105     -0.206
     19       O      2       6.000    3.156   3.051            0.105     -0.206
     20       O      2       6.000    3.369   3.343            0.026     -0.712
     21       O      2       6.000    3.369   3.343            0.026     -0.712
     22       O      2       6.000    3.155   3.051            0.105     -0.206
     23       O      2       6.000    3.155   3.051            0.105     -0.206
     24       O      2       6.000    3.369   3.343            0.026     -0.712
     25       O      2       6.000    3.369   3.343            0.026     -0.712
     26       O      2       6.000    3.155   3.050            0.105     -0.206
     27       O      2       6.000    3.155   3.050            0.105     -0.206
     28       O      2       6.000    3.369   3.343            0.026     -0.712
     29       O      2       6.000    3.369   3.343            0.026     -0.712
     30       O      2       6.000    3.155   3.050            0.105     -0.206
     31       O      2       6.000    3.155   3.050            0.105     -0.206
     32       O      2       6.000    3.369   3.343            0.026     -0.711
     33       O      2       6.000    3.369   3.343            0.026     -0.711
     34       O      2       6.000    3.155   3.051            0.105     -0.206
     35       O      2       6.000    3.155   3.051            0.105     -0.206
     36       H      3       1.000    0.200   0.199            0.000      0.601
     37       H      3       1.000    0.200   0.199            0.000      0.601
     38       H      3       1.000    0.200   0.199            0.000      0.601
     39       H      3       1.000    0.200   0.199            0.000      0.601
     40       H      3       1.000    0.203   0.200            0.003      0.598
     41       H      3       1.000    0.203   0.200            0.003      0.598
     42       H      3       1.000    0.200   0.199            0.000      0.601
     43       H      3       1.000    0.200   0.199            0.000      0.601
     44       H      3       1.000    0.200   0.199            0.000      0.601
     45       H      3       1.000    0.200   0.199            0.000      0.601
     46       H      3       1.000    0.203   0.200            0.003      0.597
     47       H      3       1.000    0.203   0.200            0.003      0.597
     48       H      3       1.000    0.200   0.199            0.000      0.601
     49       H      3       1.000    0.200   0.199            0.000      0.601
     50       H      3       1.000    0.200   0.199            0.000      0.601
     51       H      3       1.000    0.200   0.199            0.000      0.601
     52       H      3       1.000    0.203   0.200            0.003      0.598
     53       H      3       1.000    0.203   0.200            0.003      0.598
     54       H      3       1.000    0.200   0.199            0.000      0.601
     55       H      3       1.000    0.200   0.199            0.000      0.601
     56       H      3       1.000    0.200   0.199            0.000      0.601
     57       H      3       1.000    0.200   0.199            0.000      0.601
     58       H      3       1.000    0.203   0.200            0.003      0.598
     59       H      3       1.000    0.203   0.200            0.003      0.598
     60       H      3       1.000    0.200   0.199            0.000      0.601
     61       H      3       1.000    0.200   0.199            0.000      0.601
     62       H      3       1.000    0.200   0.199            0.000      0.601
     63       H      3       1.000    0.200   0.199            0.000      0.601
     64       H      3       1.000    0.203   0.200            0.003      0.598
     65       H      3       1.000    0.203   0.200            0.003      0.598
     66       H      3       1.000    0.200   0.199            0.000      0.601
     67       H      3       1.000    0.200   0.199            0.000      0.601
     68       H      3       1.000    0.200   0.199            0.000      0.601
     69       H      3       1.000    0.200   0.199            0.000      0.601
     70       H      3       1.000    0.203   0.200            0.003      0.598
     71       H      3       1.000    0.203   0.200            0.003      0.598
     72       H      3       1.000    0.200   0.199            0.000      0.601
     73       H      3       1.000    0.200   0.199            0.000      0.601
     74       H      3       1.000    0.200   0.199            0.000      0.601
     75       H      3       1.000    0.200   0.199            0.000      0.601
     76       H      3       1.000    0.203   0.200            0.003      0.598
     77       H      3       1.000    0.203   0.200            0.003      0.598

  Total Charge                                                            7.013
 !-----------------------------------------------------------------------------!
  
  Eigenvalues of the occupied subspace spin            1
 ---------------------------------------------
      -5.15880665     -5.15878106     -5.15875596     -5.15867956
      -5.15867496     -5.15862725     -5.15859969     -3.65512836
      -3.65503651     -3.65488958     -3.65488420     -3.65467670
      -3.65464017     -3.65449921     -3.65301270     -3.65297562
      -3.65293155     -3.65287884     -3.65287383     -3.65282559
      -3.65277458     -3.65216858     -3.65215090     -3.65212656
      -3.65204623     -3.65204133     -3.65199431     -3.65197098
      -1.79299608     -1.79164562     -1.79158448     -1.78990265
      -1.78881036     -1.78874710     -1.78857171     -1.78853552
      -1.78624605     -1.78621341     -1.78615827     -1.78611704
      -1.78418069     -1.78414779     -1.73808418     -1.73474620
      -1.73472423     -1.72686800     -1.72683597     -1.72021321
      -1.72002174     -1.71648269     -1.71627896     -1.71448383
      -1.71445891     -1.71220960     -1.71220165     -1.71119577
      -1.32231691     -1.31832081     -1.31830992     -1.31826942
      -1.31435982     -1.31434889     -1.31080796     -1.31074635
      -1.30969718     -1.30969193     -1.30819232     -1.30818290
      -1.29868358     -1.29856516     -1.29436810     -1.29425282
      -1.29217701     -1.29201555     -1.29199153     -1.29015131
      -1.29013448     -1.28768368     -1.28707948     -1.28707009
      -1.28676933     -1.28675649     -1.28490745     -1.28490041
      -1.28469953     -1.28468742     -1.28305798     -1.28297325
      -1.28258641     -1.27775203     -1.27766495     -1.14484932
      -1.14372293     -1.14369229     -1.14257617     -1.14125088
      -1.14123947     -1.14121801     -1.14120099     -1.13940151
      -1.13930890     -1.13818206     -1.13814579     -1.13567902
      -1.13559977     -1.11401692     -1.11400105     -1.11379405
      -1.11376058     -1.11349602     -1.10950138     -1.10929902
      -1.06534712     -1.06529591     -1.05684959     -1.05274877
      -1.05266900     -1.04330988     -1.04325623     -1.03535299
      -1.03529550     -1.03376954     -1.03375640     -1.03074253
      -1.02431386     -1.02427082     -1.00831742     -1.00830603
      -1.00053197     -1.00049198     -0.98846625     -0.98840299
      -0.98724957     -0.97361267     -0.97355878     -0.96400137
      -0.96395177     -0.96094151     -0.96078894     -0.95461658
      -0.95459651     -0.94910460     -0.94907022     -0.93594459
      -0.93588493     -0.93474686     -0.93456913     -0.93049142
      -0.92856865     -0.92845416     -0.92799542     -0.92797254
      -0.91605680     -0.91603897     -0.91036152     -0.90975968
      -0.90969481     -0.90764211     -0.89833108     -0.89819810
      -0.89818201     -0.89107991     -0.89086262     -0.89077805
      -0.89045380     -0.89043896     -0.89032812     -0.89030812
      -0.89023186     -0.89007298     -0.88519088     -0.88503740
      -0.86516248     -0.86514658     -0.84109343
 Fermi Energy [eV] :  -22.887316
  
  Eigenvalues of the occupied subspace spin            2
 ---------------------------------------------
      -4.65389363     -4.65385560     -4.65381621     -4.65375070
      -4.65374405     -4.65369202     -4.65364696     -3.05303564
      -3.05296952     -3.05290207     -3.05284979     -3.05284359
      -3.05282858     -3.05275560     -3.05273784     -3.05267843
      -3.05201715     -3.05200097     -3.05115846     -3.05110510
      -3.05105028     -3.05104988     -3.05103930     -3.05100136
      -3.05098669     -3.05092989     -3.05086891     -3.05059801
      -1.78763457     -1.78630620     -1.78624156     -1.78515772
      -1.78405573     -1.78398955     -1.78325063     -1.78321712
      -1.78146450     -1.78143391     -1.78083037     -1.78079804
      -1.77937731     -1.77935118     -1.71499023     -1.71174232
      -1.71171996     -1.70414175     -1.70411236     -1.69778545
      -1.69760634     -1.68980699     -1.68953406     -1.68945490
      -1.68900936     -1.68899109     -1.68869575     -1.68851698
      -1.14477483     -1.14319423     -1.14316364     -1.14277057
      -1.14163861     -1.14160798     -1.13957693     -1.13953733
      -1.13909332     -1.13905568     -1.13709829     -1.13700857
      -1.13665522     -1.13656378     -1.12648303     -1.12103932
      -1.12100947     -1.10736240     -1.10732943     -1.09290774
      -1.09271019     -1.05192656     -1.05189333     -1.04300802
      -1.04056829     -1.04051140     -1.03967673     -1.03958202
      -1.03634145     -1.03628757     -1.03591849     -1.03264938
      -1.03243877     -1.03102204     -1.03097285     -1.02760367
      -1.02758428     -1.02175840     -1.02171024     -1.01730490
      -1.01727848     -1.01079521     -0.98333868     -0.98329175
      -0.97477110     -0.97460327     -0.95984815     -0.95983217
      -0.95835008     -0.95829819     -0.95593375     -0.95589675
      -0.94080402     -0.94060189     -0.93357169     -0.93355276
      -0.93261509     -0.93258372     -0.92834170     -0.92832593
      -0.92821633     -0.92788843     -0.92784226     -0.92780298
      -0.92773563     -0.91486483     -0.90966633     -0.89408174
      -0.89403857     -0.88719851     -0.88339352     -0.88304136
      -0.88299167     -0.88000853     -0.87983524     -0.87848585
      -0.87846886     -0.87749925     -0.87747604     -0.87318542
      -0.87316652     -0.87217701     -0.86483296     -0.86468687
 Fermi Energy [eV] :  -23.529326
  
  Lowest eigenvalues of the unoccupied subspace spin            1
 ---------------------------------------------

  
  Lowest eigenvalues of the unoccupied subspace spin            2
 ---------------------------------------------

 -----------------------------------------------
             MAXIMAL ORBITAL ANALYSIS           
 -----------------------------------------------
 SIZE OF ALPHA ORBS IS          175
 SIZE OF BETA ORBS IS          140
 INPUT TAGS:
 NFRG =            3
 LFRG =            1           1           2
 IFRG =            5           4          26          27
 NOMOA =            0           0           0           0           0           0           0           0           0           0           0           0           0           0           0           0           0           0           0           0           0           0           0           0           0           0           0           0           0           0           0           0           0           0           0           0           0           0           0           0           0           0           0           0           0           0           0           0           0           0           0           0           0           0           0           0           0           0           0           0           0           0           0           0           0           0           0           0           0           0           0           0           0           0           0           0           0           0           0           0           0           0           0           0           0           0           0           0           0           0           0           0           0           0           0           0           0           0           0           0           0           0           0           0           0           0           0           0           0           0           0           0           0           0           0           0           0           0           0           0           0           0           0           0           0           0           0           0           0           0           0           0           0           0           0           0           0           0           0           0           0           0           0           0           0           0           0           0           0           0           0           0           0           0           0           0           0           0           0           0           0           0           0           0           0           0           0           0           0           0           0           0           0           0           0
[...]
 flops     2 x    19 x    12               268128     100.0%      0.0%      0.0%
 flops    54 x    15 x    22               285120     100.0%      0.0%      0.0%
 flops    54 x    12 x    28               290304     100.0%      0.0%      0.0%
 flops    19 x     2 x    15               335160     100.0%      0.0%      0.0%
 flops     2 x    19 x    15               335160     100.0%      0.0%      0.0%
 flops    54 x    12 x    33               342144     100.0%      0.0%      0.0%
 flops    54 x    15 x    28               362880     100.0%      0.0%      0.0%
 flops    55 x    15 x    15               371250     100.0%      0.0%      0.0%
 flops    32 x    32 x    12               393216     100.0%      0.0%      0.0%
 flops    12 x    32 x    32               393216     100.0%      0.0%      0.0%
 flops    32 x    12 x    32               393216     100.0%      0.0%      0.0%
 flops    54 x    15 x    33               427680     100.0%      0.0%      0.0%
 flops     8 x     2 x    12               451584     100.0%      0.0%      0.0%
 flops     2 x     8 x    12               451584     100.0%      0.0%      0.0%
 flops    56 x    12 x    22               473088     100.0%      0.0%      0.0%
 flops    19 x    19 x    12               485184     100.0%      0.0%      0.0%
 flops    54 x    32 x    12               497664     100.0%      0.0%      0.0%
 flops    54 x    12 x    32               497664     100.0%      0.0%      0.0%
 flops     8 x     2 x    15               564480     100.0%      0.0%      0.0%
 flops     2 x     8 x    15               564480     100.0%      0.0%      0.0%
 flops    56 x    15 x    22               591360     100.0%      0.0%      0.0%
 flops    56 x    12 x    28               602112     100.0%      0.0%      0.0%
 flops    19 x    19 x    15               606480     100.0%      0.0%      0.0%
 flops    56 x    12 x    33               709632     100.0%      0.0%      0.0%
 flops     8 x    19 x    12               715008     100.0%      0.0%      0.0%
 flops    19 x     8 x    12               715008     100.0%      0.0%      0.0%
 flops    56 x    15 x    28               752640     100.0%      0.0%      0.0%
 flops    32 x    32 x    15               768000     100.0%      0.0%      0.0%
 flops    15 x    32 x    32               768000     100.0%      0.0%      0.0%
 flops    32 x    15 x    32               768000     100.0%      0.0%      0.0%
 flops    54 x    32 x    15               777600     100.0%      0.0%      0.0%
 flops    54 x    15 x    32               777600     100.0%      0.0%      0.0%
 flops    12 x    32 x    22               811008     100.0%      0.0%      0.0%
 flops    32 x    12 x    22               811008     100.0%      0.0%      0.0%
 flops    56 x    15 x    33               887040     100.0%      0.0%      0.0%
 flops     8 x    19 x    15               893760     100.0%      0.0%      0.0%
 flops    19 x     8 x    15               893760     100.0%      0.0%      0.0%
 flops     2 x    12 x     2              1016064     100.0%      0.0%      0.0%
 flops    56 x    12 x    32              1032192     100.0%      0.0%      0.0%
 flops    56 x    32 x    12              1032192     100.0%      0.0%      0.0%
 flops    12 x    32 x    28              1032192     100.0%      0.0%      0.0%
 flops    32 x    12 x    28              1032192     100.0%      0.0%      0.0%
 flops     2 x    15 x     2              1058400     100.0%      0.0%      0.0%
 flops    55 x    12 x    22              1161600     100.0%      0.0%      0.0%
 flops    12 x    32 x    33              1216512     100.0%      0.0%      0.0%
 flops    32 x    12 x    33              1216512     100.0%      0.0%      0.0%
 flops     8 x     8 x    12              1247232     100.0%      0.0%      0.0%
 flops    15 x    32 x    22              1267200     100.0%      0.0%      0.0%
 flops    32 x    15 x    22              1267200     100.0%      0.0%      0.0%
 flops    55 x    15 x    22              1452000     100.0%      0.0%      0.0%
 flops    55 x    12 x    28              1478400     100.0%      0.0%      0.0%
 flops     2 x    32 x    32              1548288     100.0%      0.0%      0.0%
 flops     8 x     8 x    15              1559040     100.0%      0.0%      0.0%
 flops    19 x    12 x     2              1608768     100.0%      0.0%      0.0%
 flops     2 x    12 x    19              1608768     100.0%      0.0%      0.0%
 flops    56 x    15 x    32              1612800     100.0%      0.0%      0.0%
 flops    56 x    32 x    15              1612800     100.0%      0.0%      0.0%
 flops    15 x    32 x    28              1612800     100.0%      0.0%      0.0%
 flops    32 x    15 x    28              1612800     100.0%      0.0%      0.0%
 flops    19 x    15 x     2              1675800     100.0%      0.0%      0.0%
 flops     2 x    15 x    19              1675800     100.0%      0.0%      0.0%
 flops    55 x    12 x    33              1742400     100.0%      0.0%      0.0%
 flops    55 x    15 x    28              1848000     100.0%      0.0%      0.0%
 flops    15 x    32 x    33              1900800     100.0%      0.0%      0.0%
 flops    32 x    15 x    33              1900800     100.0%      0.0%      0.0%
 flops    55 x    15 x    33              2178000     100.0%      0.0%      0.0%
 flops    19 x    32 x    32              2451456     100.0%      0.0%      0.0%
 flops    55 x    12 x    32              2534400     100.0%      0.0%      0.0%
 flops    55 x    32 x    12              2534400     100.0%      0.0%      0.0%
 flops    19 x    12 x    19              2547216     100.0%      0.0%      0.0%
 flops    19 x    15 x    19              2653350     100.0%      0.0%      0.0%
 flops     8 x    12 x     2              2709504     100.0%      0.0%      0.0%
 flops     2 x    12 x     8              2709504     100.0%      0.0%      0.0%
 flops     8 x    15 x     2              2822400     100.0%      0.0%      0.0%
 flops     2 x    15 x     8              2822400     100.0%      0.0%      0.0%
 flops    55 x    15 x    32              3960000     100.0%      0.0%      0.0%
 flops    55 x    32 x    15              3960000     100.0%      0.0%      0.0%
 flops     8 x    32 x    32              4128768     100.0%      0.0%      0.0%
 flops     2 x     2 x    32              4161024     100.0%      0.0%      0.0%
 flops    19 x    12 x     8              4290048     100.0%      0.0%      0.0%
 flops     8 x    12 x    19              4290048     100.0%      0.0%      0.0%
 flops    19 x    15 x     8              4468800     100.0%      0.0%      0.0%
 flops     8 x    15 x    19              4468800     100.0%      0.0%      0.0%
 flops    54 x    32 x    22              5474304     100.0%      0.0%      0.0%
 flops    19 x     2 x    32              6435072     100.0%      0.0%      0.0%
 flops     2 x    19 x    32              6435072     100.0%      0.0%      0.0%
 flops    54 x    32 x    28              6967296     100.0%      0.0%      0.0%
 flops     8 x    12 x     8              7225344     100.0%      0.0%      0.0%
 flops     8 x    15 x     8              7526400     100.0%      0.0%      0.0%
 flops    54 x    32 x    33              8211456     100.0%      0.0%      0.0%
 flops     8 x     2 x    32             10838016     100.0%      0.0%      0.0%
 flops     2 x     8 x    32             10838016     100.0%      0.0%      0.0%
 flops    56 x    32 x    22             11354112     100.0%      0.0%      0.0%
 flops    19 x    19 x    32             11644416     100.0%      0.0%      0.0%
 flops    32 x    32 x    32             12386304     100.0%      0.0%      0.0%
 flops    54 x    32 x    32             13602816     100.0%      0.0%      0.0%
 flops    56 x    32 x    28             14450688     100.0%      0.0%      0.0%
 flops    56 x    32 x    33             17031168     100.0%      0.0%      0.0%
 flops     8 x    19 x    32             17160192     100.0%      0.0%      0.0%
 flops    19 x     8 x    32             17160192     100.0%      0.0%      0.0%
 flops     2 x    32 x     2             22127616     100.0%      0.0%      0.0%
 flops    32 x    32 x    22             22167552     100.0%      0.0%      0.0%
 flops    55 x    32 x    22             27878400     100.0%      0.0%      0.0%
 flops    32 x    32 x    28             28213248     100.0%      0.0%      0.0%
 flops    56 x    32 x    32             28213248     100.0%      0.0%      0.0%
 flops     8 x     8 x    32             29933568     100.0%      0.0%      0.0%
 flops    32 x    32 x    33             33251328     100.0%      0.0%      0.0%
 flops    19 x    32 x     2             35035392     100.0%      0.0%      0.0%
 flops     2 x    32 x    19             35035392     100.0%      0.0%      0.0%
 flops    55 x    32 x    28             35481600     100.0%      0.0%      0.0%
 flops    55 x    32 x    33             41817600     100.0%      0.0%      0.0%
 flops    19 x    32 x    19             55472704     100.0%      0.0%      0.0%
 flops     2 x    32 x     8             59006976     100.0%      0.0%      0.0%
 flops     8 x    32 x     2             59006976     100.0%      0.0%      0.0%
 flops    55 x    32 x    32             69273600     100.0%      0.0%      0.0%
 flops    19 x    32 x     8             93427712     100.0%      0.0%      0.0%
 flops     8 x    32 x    19             93427712     100.0%      0.0%      0.0%
 flops     8 x    32 x     8            157351936     100.0%      0.0%      0.0%
 flops inhomo. stacks                   126837480     100.0%      0.0%      0.0%
 flops total                         1.361341E+09     100.0%      0.0%      0.0%
 flops max/rank                     35.355280E+06     100.0%      0.0%      0.0%
 matmuls inhomo. stacks                      1436     100.0%      0.0%      0.0%
 matmuls total                             430202     100.0%      0.0%      0.0%
 number of processed stacks                 67886     100.0%      0.0%      0.0%
 average stack size                                     6.3       0.0       0.0
 marketing flops                     1.527756E+09
 -------------------------------------------------------------------------------
 # multiplications                             37
 max memory usage/rank             491.823104E+06
 # max total images/rank                        2
 # max 3D layers                                1
 # MPI messages exchanged                  213120
 MPI messages size (bytes):
  total size                       738.825600E+06
  min size                           0.000000E+00
  max size                          16.576000E+03
  average size                       3.466712E+03
 MPI breakdown and total messages size (bytes):
             size <=      128              130860                        0
       128 < size <=     8192               39705                233078280
      8192 < size <=    32768               42555                505747320
     32768 < size <=   131072                   0                        0
    131072 < size <=  4194304                   0                        0
   4194304 < size <= 16777216                   0                        0
  16777216 < size                               0                        0
 -------------------------------------------------------------------------------

 *** WARNING in dbcsr/mm/dbcsr_mm.F:268 :: Using a non-square number of ***
 *** MPI ranks might lead to poor performance.                          ***
 *** Used ranks: 128                                                    ***
 *** Suggested: 121 256                                                 ***

 -------------------------------------------------------------------------------

 MEMORY| Estimated peak process memory [MiB]                                 489

 -------------------------------------------------------------------------------
 ----                             MULTIGRID INFO                            ----
 -------------------------------------------------------------------------------
 count for grid        1:        3772361          cutoff [a.u.]          250.00
 count for grid        2:        1908683          cutoff [a.u.]           83.33
 count for grid        3:        1597281          cutoff [a.u.]           27.78
 count for grid        4:        1233527          cutoff [a.u.]            9.26
 count for grid        5:         614144          cutoff [a.u.]            3.09
 total gridlevel count  :        9125996

 -------------------------------------------------------------------------------
 -                                                                             -
 -                         MESSAGE PASSING PERFORMANCE                         -
 -                                                                             -
 -------------------------------------------------------------------------------

 ROUTINE             CALLS      AVE VOLUME [Bytes]
 MP_Group               28
 MP_Bcast              721                 453057.
 MP_Allreduce         2176                  25320.
 MP_Sync           3940032
 MP_Alltoall          1584                5917843.
 MP_ISendRecv        46482                  63324.
 MP_Wait             62058
 MP_comm_split         175
 MP_ISend            12792                 264725.
 MP_IRecv            12780                 258894.
 MP_Recv           3912510                   3840.
 MP_Memory            1950
 -------------------------------------------------------------------------------


 -------------------------------------------------------------------------------
 -                                                                             -
 -                           R E F E R E N C E S                               -
 -                                                                             -
 -------------------------------------------------------------------------------
 
 CP2K version 6.1, the CP2K developers group (2018).
 CP2K is freely available from https://www.cp2k.org/ .

 Schuett, Ole; Messmer, Peter; Hutter, Juerg; VandeVondele, Joost. 
 Electronic Structure Calculations on Graphics Processing Units, John Wiley & Sons, Ltd, 173-190 (2016). 
 GPU-Accelerated Sparse Matrix-Matrix Multiplication for Linear Scaling Density Functional Theory.
 http://dx.doi.org/10.1002/9781118670712.ch8


 Borstnik, U; VandeVondele, J; Weber, V; Hutter, J. 
 PARALLEL COMPUTING, 40 (5-6), 47-58 (2014). 
 Sparse matrix multiplication: The distributed block-compressed sparse
 row library.
 http://dx.doi.org/10.1016/j.parco.2014.03.012


 Hutter, J; Iannuzzi, M; Schiffmann, F; VandeVondele, J. 
 WILEY INTERDISCIPLINARY REVIEWS-COMPUTATIONAL MOLECULAR SCIENCE, 4 (1), 15-25 (2014). 
 CP2K: atomistic simulations of condensed matter systems.
 http://dx.doi.org/10.1002/wcms.1159


 Guidon, M; Hutter, J; VandeVondele, J. 
 JOURNAL OF CHEMICAL THEORY AND COMPUTATION, 5 (11), 3010-3021 (2009). 
 Robust Periodic Hartree-Fock Exchange for Large-Scale Simulations Using
 Gaussian Basis Sets.
 http://dx.doi.org/10.1021/ct900494g


 Guidon, M; Schiffmann, F; Hutter, J; VandeVondele, J. 
 JOURNAL OF CHEMICAL PHYSICS, 128 (21), 214104 (2008). 
 Ab initio molecular dynamics using hybrid density functionals.
 http://dx.doi.org/10.1063/1.2931945


 Krack, M. 
 THEORETICAL CHEMISTRY ACCOUNTS, 114 (1-3), 145-152 (2005). 
 Pseudopotentials for H to Kr optimized for gradient-corrected
 exchange-correlation functionals.
 http://dx.doi.org/10.1007/s00214-005-0655-y


 VandeVondele, J; Krack, M; Mohamed, F; Parrinello, M; Chassaing, T;
 Hutter, J. COMPUTER PHYSICS COMMUNICATIONS, 167 (2), 103-128 (2005). 
 QUICKSTEP: Fast and accurate density functional calculations using a
 mixed Gaussian and plane waves approach.
 http://dx.doi.org/10.1016/j.cpc.2004.12.014


 Frigo, M; Johnson, SG. 
 PROCEEDINGS OF THE IEEE, 93 (2), 216-231 (2005). 
 The design and implementation of FFTW3.
 http://dx.doi.org/10.1109/JPROC.2004.840301


 VandeVondele, J; Hutter, J. 
 JOURNAL OF CHEMICAL PHYSICS, 118 (10), 4365-4369 (2003). 
 An efficient orbital transformation method for electronic structure
 calculations.
 http://dx.doi.org/10.1063/1.1543154


 Hartwigsen, C; Goedecker, S; Hutter, J. 
 PHYSICAL REVIEW B, 58 (7), 3641-3662 (1998). 
 Relativistic separable dual-space Gaussian pseudopotentials from H to Rn.
 http://dx.doi.org/10.1103/PhysRevB.58.3641


 Lippert, G; Hutter, J; Parrinello, M. 
 MOLECULAR PHYSICS, 92 (3), 477-487 (1997). 
 A hybrid Gaussian and plane wave density functional scheme.
 http://dx.doi.org/10.1080/002689797170220


 Goedecker, S; Teter, M; Hutter, J. 
 PHYSICAL REVIEW B, 54 (3), 1703-1710 (1996). 
 Separable dual-space Gaussian pseudopotentials.
 http://dx.doi.org/10.1103/PhysRevB.54.1703


 -------------------------------------------------------------------------------
 -                                                                             -
 -                                T I M I N G                                  -
 -                                                                             -
 -------------------------------------------------------------------------------
 SUBROUTINE                       CALLS  ASD         SELF TIME        TOTAL TIME
                                MAXIMUM       AVERAGE  MAXIMUM  AVERAGE  MAXIMUM
 CP2K                                 1  1.0    0.123    0.280  967.018  967.033
 qs_energies                          1  2.0    0.001    0.002  964.808  965.390
 qs_energies_properties               1  3.0    0.000    0.000  899.148  899.743
 maximal_orbital_analysis             1  4.0    0.152    0.166  899.148  899.743
 moax_frg                             3  5.0    1.406    1.518  898.508  899.103
 orbmoa_frg                           6  6.0    1.865   71.070  895.093  896.928
 mp_sync                        3940032  8.0  778.465  787.346  778.465  787.346
 pw_to_cube                         114  7.0    7.590  660.759  782.803  783.252
 calculate_wavefunction             114  7.0   67.616   68.958  108.019  109.702
 scf_env_do_scf                       1  3.0    0.000    0.000   63.613   63.613
 init_scf_loop                        1  4.0    0.000    0.006   62.727   62.727
 qs_ks_update_qs_env                  2  5.0    0.000    0.000   62.275   62.597
 rebuild_ks_matrix                    1  6.0    0.000    0.000   62.274   62.597
 qs_ks_build_kohn_sham_matrix         1  7.0    0.722    1.045   62.274   62.597
 hfx_ks_matrix                        1  8.0    0.002    0.006   60.856   60.861
 integrate_four_center                1  9.0    0.010    0.871   60.854   60.860
 integrate_four_center_main           1 10.0    0.000    0.000   53.747   58.677
 integrate_four_center_bin           64 11.0   53.746   58.676   53.746   58.676
 mp_recv_dv                     3912510  8.0    0.278   35.586    0.278   35.586
 pw_transfer                        722  8.0    0.038    0.060   24.815   26.072
 fft_wrap_pw1pw2                    720  9.0    0.006    0.008   24.769   26.016
 fft_wrap_pw1pw2_250                240 10.0    1.292    1.535   21.179   22.453
 fft3d_ps                           720 11.0    9.248   11.264   20.428   21.603
 -------------------------------------------------------------------------------

 The number of warnings for this run is : 1
 
 -------------------------------------------------------------------------------
  **** **** ******  **  PROGRAM ENDED AT                 2020-03-22 19:06:38.701
 ***** ** ***  *** **   PROGRAM RAN ON            cpn-u23-27.cbls.ccr.buffalo.ed
 **    ****   ******    PROGRAM RAN BY                                  pavankum
 ***** **    ** ** **   PROGRAM PROCESS ID                                150456
  **** **  *******  **  PROGRAM STOPPED IN /projects/academic/mdupuis2/pavan/MOA
                                           /Hematite/1d-chain/HF/neutral
