 DBCSR| Multiplication driver                                               BLAS
 DBCSR| Multrec recursion limit                                              512
 DBCSR| Multiplication stack size                                           1000
 DBCSR| Maximum elements for images                                    UNLIMITED
 DBCSR| Multiplicative factor virtual images                                   1
 DBCSR| Multiplication size stacks                                             3
 DBCSR| Number of 3D layers                                               SINGLE
 DBCSR| Use MPI memory allocation                                              T
 DBCSR| Use RMA algorithm                                                      F
 DBCSR| Use Communication thread                                               T
 DBCSR| Communication thread load                                             87


  **** **** ******  **  PROGRAM STARTED AT               2020-04-22 07:53:55.412
 ***** ** ***  *** **   PROGRAM STARTED ON        cpn-u22-14.cbls.ccr.buffalo.ed
 **    ****   ******    PROGRAM STARTED BY                              pavankum
 ***** **    ** ** **   PROGRAM PROCESS ID                                169300
  **** **  *******  **  PROGRAM STARTED IN /projects/academic/mdupuis2/pavan/MOA
                                           /BVO/gopt_state0

 CP2K| version string:                                          CP2K version 6.1
 CP2K| source code revision number:                                    svn:18464
 CP2K| cp2kflags: libint fftw3 libxc parallel mpi3 scalapack libderiv_max_am1=5 
 CP2K|            libint_max_am=6
 CP2K| is freely available from                            https://www.cp2k.org/
 CP2K| Program compiled at                          Fri Nov 30 14:17:09 EST 2018
 CP2K| Program compiled on                       srv-p22-12.cbls.ccr.buffalo.edu
 CP2K| Program compiled for                                                local
 CP2K| Data directory path    /projects/academic/mdupuis2/pavan/cp2k/cp2k-6.1/da
 CP2K| Input file name                                                 input.inp

 GLOBAL| Force Environment number                                              1
 GLOBAL| Basis set file name            /projects/academic/mdupuis2/pavan/BASIS_
 GLOBAL| Potential file name            /projects/academic/mdupuis2/pavan/POTENT
 GLOBAL| MM Potential file name                                     MM_POTENTIAL
 GLOBAL| Coordinate file name                                         ./opt0.xyz
 GLOBAL| Method name                                                        CP2K
 GLOBAL| Project name                                                     p_bvo_
 GLOBAL| Preferred FFT library                                             FFTW3
 GLOBAL| Preferred diagonalization lib.                                       SL
 GLOBAL| Run type                                                         ENERGY
 GLOBAL| All-to-all communication in single precision                          F
 GLOBAL| FFTs using library dependent lengths                                  T
 GLOBAL| Global print level                                               MEDIUM
 GLOBAL| Total number of message passing processes                           128
 GLOBAL| Number of threads for this process                                    1
 GLOBAL| This output is from process                                           0
 GLOBAL| CPU model name :  Intel(R) Xeon(R) Gold 6130 CPU @ 2.10GHz

 MEMORY| system memory details [Kb]
 MEMORY|                        rank 0           min           max       average
 MEMORY| MemTotal            790968832     790968832     790968848     790968838
 MEMORY| MemFree             638439000     561141080     743740884     658760950
 MEMORY| Buffers                455784        455784        604832        527467
 MEMORY| Cached              141119316      35833388     218533432     120908522
 MEMORY| Slab                  1855604       1549504       1855604       1680166
 MEMORY| SReclaimable          1552436       1248884       1552436       1377977
 MEMORY| MemLikelyFree       781566536     781526864     781678036     781574916


 *** Fundamental physical constants (SI units) ***

 *** Literature: B. J. Mohr and B. N. Taylor,
 ***             CODATA recommended values of the fundamental physical
 ***             constants: 2006, Web Version 5.1
 ***             http://physics.nist.gov/constants

 Speed of light in vacuum [m/s]                             2.99792458000000E+08
 Magnetic constant or permeability of vacuum [N/A**2]       1.25663706143592E-06
 Electric constant or permittivity of vacuum [F/m]          8.85418781762039E-12
 Planck constant (h) [J*s]                                  6.62606896000000E-34
 Planck constant (h-bar) [J*s]                              1.05457162825177E-34
 Elementary charge [C]                                      1.60217648700000E-19
 Electron mass [kg]                                         9.10938215000000E-31
 Electron g factor [ ]                                     -2.00231930436220E+00
 Proton mass [kg]                                           1.67262163700000E-27
 Fine-structure constant                                    7.29735253760000E-03
 Rydberg constant [1/m]                                     1.09737315685270E+07
 Avogadro constant [1/mol]                                  6.02214179000000E+23
 Boltzmann constant [J/K]                                   1.38065040000000E-23
 Atomic mass unit [kg]                                      1.66053878200000E-27
 Bohr radius [m]                                            5.29177208590000E-11

 *** Conversion factors ***

 [u] -> [a.u.]                                              1.82288848426455E+03
 [Angstrom] -> [Bohr] = [a.u.]                              1.88972613288564E+00
 [a.u.] = [Bohr] -> [Angstrom]                              5.29177208590000E-01
 [a.u.] -> [s]                                              2.41888432650478E-17
 [a.u.] -> [fs]                                             2.41888432650478E-02
 [a.u.] -> [J]                                              4.35974393937059E-18
 [a.u.] -> [N]                                              8.23872205491840E-08
 [a.u.] -> [K]                                              3.15774647902944E+05
 [a.u.] -> [kJ/mol]                                         2.62549961709828E+03
 [a.u.] -> [kcal/mol]                                       6.27509468713739E+02
 [a.u.] -> [Pa]                                             2.94210107994716E+13
 [a.u.] -> [bar]                                            2.94210107994716E+08
 [a.u.] -> [atm]                                            2.90362800883016E+08
 [a.u.] -> [eV]                                             2.72113838565563E+01
 [a.u.] -> [Hz]                                             6.57968392072181E+15
 [a.u.] -> [1/cm] (wave numbers)                            2.19474631370540E+05
 [a.u./Bohr**2] -> [1/cm]                                   5.14048714338585E+03
 

 CELL_TOP| Volume [angstrom^3]:                                         2787.646
 CELL_TOP| Vector a [angstrom    15.587     0.000     0.000    |a| =      15.587
 CELL_TOP| Vector b [angstrom    -0.102    15.280     0.000    |b| =      15.281
 CELL_TOP| Vector c [angstrom     0.000     0.000    11.705    |c| =      11.705
 CELL_TOP| Angle (b,c), alpha [degree]:                                   90.000
 CELL_TOP| Angle (a,c), beta  [degree]:                                   90.000
 CELL_TOP| Angle (a,b), gamma [degree]:                                   90.383
 CELL_TOP| Numerically orthorhombic:                                          NO

 CELL| Volume [angstrom^3]:                                             2787.646
 CELL| Vector a [angstrom]:      15.587     0.000     0.000    |a| =      15.587
 CELL| Vector b [angstrom]:      -0.102    15.280     0.000    |b| =      15.281
 CELL| Vector c [angstrom]:       0.000     0.000    11.705    |c| =      11.705
 CELL| Angle (b,c), alpha [degree]:                                       90.000
 CELL| Angle (a,c), beta  [degree]:                                       90.000
 CELL| Angle (a,b), gamma [degree]:                                       90.383
 CELL| Numerically orthorhombic:                                              NO

 CELL_REF| Volume [angstrom^3]:                                         2787.646
 CELL_REF| Vector a [angstrom    15.587     0.000     0.000    |a| =      15.587
 CELL_REF| Vector b [angstrom    -0.102    15.280     0.000    |b| =      15.281
 CELL_REF| Vector c [angstrom     0.000     0.000    11.705    |c| =      11.705
 CELL_REF| Angle (b,c), alpha [degree]:                                   90.000
 CELL_REF| Angle (a,c), beta  [degree]:                                   90.000
 CELL_REF| Angle (a,b), gamma [degree]:                                   90.383
 CELL_REF| Numerically orthorhombic:                                          NO

 *******************************************************************************
 *******************************************************************************
 **                                                                           **
 **     #####                         ##              ##                      **
 **    ##   ##            ##          ##              ##                      **
 **   ##     ##                       ##            ######                    **
 **   ##     ##  ##   ##  ##   #####  ##  ##   ####   ##    #####    #####    **
 **   ##     ##  ##   ##  ##  ##      ## ##   ##      ##   ##   ##  ##   ##   **
 **   ##  ## ##  ##   ##  ##  ##      ####     ###    ##   ######   ######    **
 **    ##  ###   ##   ##  ##  ##      ## ##      ##   ##   ##       ##        **
 **     #######   #####   ##   #####  ##  ##  ####    ##    #####   ##        **
 **           ##                                                    ##        **
 **                                                                           **
 **                                                ... make the atoms dance   **
 **                                                                           **
 **            Copyright (C) by CP2K developers group (2000 - 2018)           **
 **                                                                           **
 *******************************************************************************

 DFT| Spin unrestricted (spin-polarized) Kohn-Sham calculation               UKS
 DFT| Multiplicity                                                             2
 DFT| Number of spin states                                                    2
 DFT| Charge                                                                  -1
 DFT| Self-interaction correction (SIC)                                       NO
 DFT| Cutoffs: density                                              1.000000E-10
 DFT|          gradient                                             1.000000E-10
 DFT|          tau                                                  1.000000E-10
 DFT|          cutoff_smoothing_range                               0.000000E+00
 DFT| XC density smoothing                                                  NONE
 DFT| XC derivatives                                                          PW

 DFT+U| Method                                                          MULLIKEN
 DFT+U| Check atomic kind information for details
 FUNCTIONAL| ROUTINE=NEW
 FUNCTIONAL| PBE:
 FUNCTIONAL| J.P.Perdew, K.Burke, M.Ernzerhof, Phys. Rev. Letter, vol. 77, n 18,
 FUNCTIONAL|  pp. 3865-3868, (1996){spin polarized}                             

 QS| Method:                                                                 GPW
 QS| Density plane wave grid type                        NON-SPHERICAL FULLSPACE
 QS| Number of grid levels:                                                   10
 QS| Density cutoff [a.u.]:                                                325.0
 QS| Multi grid cutoff [a.u.]: 1) grid level                               325.0
 QS|                           2) grid level                               108.3
 QS|                           3) grid level                                36.1
 QS|                           4) grid level                                12.0
 QS|                           5) grid level                                 4.0
 QS|                           6) grid level                                 1.3
 QS|                           7) grid level                                 0.4
 QS|                           8) grid level                                 0.1
 QS|                           9) grid level                                 0.0
 QS|                          10) grid level                                 0.0
 QS| Grid level progression factor:                                          3.0
 QS| Relative density cutoff [a.u.]:                                        30.0
 QS| Consistent realspace mapping and integration 
 QS| Interaction thresholds: eps_pgf_orb:                                1.0E-12
 QS|                         eps_filter_matrix:                          0.0E+00
 QS|                         eps_core_charge:                            1.0E-14
 QS|                         eps_rho_gspace:                             1.0E-12
 QS|                         eps_rho_rspace:                             1.0E-12
 QS|                         eps_gvg_rspace:                             1.0E-06
 QS|                         eps_ppl:                                    1.0E-02
 QS|                         eps_ppnl:                                   1.0E-08


 ATOMIC KIND INFORMATION

  1. Atomic kind: Bi                                    Number of atoms:      36

     Orbital Basis Set                                      SZV-MOLOPT-SR-GTH-q5

       Number of orbital shell sets:                                           1
       Number of orbital shells:                                               2
       Number of primitive Cartesian functions:                                5
       Number of Cartesian basis functions:                                    4
       Number of spherical basis functions:                                    4
       Norm type:                                                              2

       Normalised Cartesian orbitals:

                        Set   Shell   Orbital            Exponent    Coefficient

                          1       1    2s                1.666928      -0.653332
                                                         1.317942       0.913949
                                                         0.222221      -0.237783
                                                         0.074524      -0.045176
                                                         0.066725       0.021473

                          1       2    3px               1.666928      -0.339972
                                                         1.317942       0.505803
                                                         0.222221      -0.150343
                                                         0.074524      -0.031874
                                                         0.066725       0.007024
                          1       2    3py               1.666928      -0.339972
                                                         1.317942       0.505803
                                                         0.222221      -0.150343
                                                         0.074524      -0.031874
                                                         0.066725       0.007024
                          1       2    3pz               1.666928      -0.339972
                                                         1.317942       0.505803
                                                         0.222221      -0.150343
                                                         0.074524      -0.031874
                                                         0.066725       0.007024

     GTH Potential information for                                    GTH-PBE-q5

       Description:                       Goedecker-Teter-Hutter pseudopotential
                                           Goedecker et al., PRB 54, 1703 (1996)
                                          Hartwigsen et al., PRB 58, 3641 (1998)
                                                      Krack, TCA 114, 145 (2005)

       Gaussian exponent of the core charge distribution:               1.366027
       Electronic configuration (s p d ...):                               2   3

       Parameters of the local part of the GTH pseudopotential:

                          rloc        C1          C2          C3          C4
                        0.605000    7.945757

       Parameters of the non-local part of the GTH pseudopotential:

                   l      r(l)      h(i,j,l)

                   0    0.582232    0.643735    2.247616   -1.440601
                                    2.247616   -5.244797    3.719615
                                   -1.440601    3.719615   -2.952353
                   1    0.766394    0.212533    0.379834
                                    0.379834   -0.449426
                   2    0.965655    0.347298

  2. Atomic kind: O                                     Number of atoms:     144

     Orbital Basis Set                                            SZV-MOLOPT-GTH

       Number of orbital shell sets:                                           1
       Number of orbital shells:                                               2
       Number of primitive Cartesian functions:                                7
       Number of Cartesian basis functions:                                    4
       Number of spherical basis functions:                                    4
       Norm type:                                                              2

       Normalised Cartesian orbitals:

                        Set   Shell   Orbital            Exponent    Coefficient

                          1       1    2s               12.015955      -0.284499
                                                         5.108150      -0.322498
                                                         2.048398       0.148191
                                                         0.832382       0.295475
                                                         0.352316       0.150829
                                                         0.142977       0.015788
                                                         0.046761      -0.000019

                          1       2    3px              12.015955       1.192141
                                                         5.108150       1.354170
                                                         2.048398       0.897267
                                                         0.832382       0.408839
                                                         0.352316       0.116648
                                                         0.142977       0.022184
                                                         0.046761       0.000308
                          1       2    3py              12.015955       1.192141
                                                         5.108150       1.354170
                                                         2.048398       0.897267
                                                         0.832382       0.408839
                                                         0.352316       0.116648
                                                         0.142977       0.022184
                                                         0.046761       0.000308
                          1       2    3pz              12.015955       1.192141
                                                         5.108150       1.354170
                                                         2.048398       0.897267
                                                         0.832382       0.408839
                                                         0.352316       0.116648
                                                         0.142977       0.022184
                                                         0.046761       0.000308

     GTH Potential information for                                    GTH-PBE-q6

       Description:                       Goedecker-Teter-Hutter pseudopotential
                                           Goedecker et al., PRB 54, 1703 (1996)
                                          Hartwigsen et al., PRB 58, 3641 (1998)
                                                      Krack, TCA 114, 145 (2005)

       Gaussian exponent of the core charge distribution:               8.360253
       Electronic configuration (s p d ...):                               2   4

       Parameters of the local part of the GTH pseudopotential:

                          rloc        C1          C2          C3          C4
                        0.244554  -16.667215    2.487311

       Parameters of the non-local part of the GTH pseudopotential:

                   l      r(l)      h(i,j,l)

                   0    0.220956   18.337458
                   1    0.211332

  3. Atomic kind: V                                     Number of atoms:      36

     Orbital Basis Set                                         SZV-MOLOPT-SR-GTH

       Number of orbital shell sets:                                           1
       Number of orbital shells:                                               4
       Number of primitive Cartesian functions:                                6
       Number of Cartesian basis functions:                                   11
       Number of spherical basis functions:                                   10
       Norm type:                                                              2

       Normalised Cartesian orbitals:

                        Set   Shell   Orbital            Exponent    Coefficient

                          1       1    2s                7.984624       0.068312
                                                         4.192170       0.996465
                                                         1.674403      -0.695882
                                                         0.666665      -0.342831
                                                         0.242420      -0.011700
                                                         0.067390      -0.000008

                          1       2    3s                7.984624       0.010854
                                                         4.192170       0.224393
                                                         1.674403      -0.208460
                                                         0.666665      -0.212021
                                                         0.242420       0.023706
                                                         0.067390       0.098708

                          1       3    3px               7.984624      -2.273073
                                                         4.192170       1.136092
                                                         1.674403       1.409224
                                                         0.666665       0.387613
                                                         0.242420       0.019510
                                                         0.067390      -0.000216
                          1       3    3py               7.984624      -2.273073
                                                         4.192170       1.136092
                                                         1.674403       1.409224
                                                         0.666665       0.387613
                                                         0.242420       0.019510
                                                         0.067390      -0.000216
                          1       3    3pz               7.984624      -2.273073
                                                         4.192170       1.136092
                                                         1.674403       1.409224
                                                         0.666665       0.387613
                                                         0.242420       0.019510
                                                         0.067390      -0.000216

                          1       4    4dx2              7.984624       3.479555
                                                         4.192170       3.995918
                                                         1.674403       1.309836
                                                         0.666665       0.287934
                                                         0.242420       0.045388
                                                         0.067390       0.001996
                          1       4    4dxy              7.984624       6.026766
                                                         4.192170       6.921133
                                                         1.674403       2.268703
                                                         0.666665       0.498717
                                                         0.242420       0.078614
                                                         0.067390       0.003457
                          1       4    4dxz              7.984624       6.026766
                                                         4.192170       6.921133
                                                         1.674403       2.268703
                                                         0.666665       0.498717
                                                         0.242420       0.078614
                                                         0.067390       0.003457
                          1       4    4dy2              7.984624       3.479555
                                                         4.192170       3.995918
                                                         1.674403       1.309836
                                                         0.666665       0.287934
                                                         0.242420       0.045388
                                                         0.067390       0.001996
                          1       4    4dyz              7.984624       6.026766
                                                         4.192170       6.921133
                                                         1.674403       2.268703
                                                         0.666665       0.498717
                                                         0.242420       0.078614
                                                         0.067390       0.003457
                          1       4    4dz2              7.984624       3.479555
                                                         4.192170       3.995918
                                                         1.674403       1.309836
                                                         0.666665       0.287934
                                                         0.242420       0.045388
                                                         0.067390       0.001996

     GTH Potential information for                                   GTH-PBE-q13

       Description:                       Goedecker-Teter-Hutter pseudopotential
                                           Goedecker et al., PRB 54, 1703 (1996)
                                          Hartwigsen et al., PRB 58, 3641 (1998)
                                                      Krack, TCA 114, 145 (2005)

       Gaussian exponent of the core charge distribution:               3.555556
       Electronic configuration (s p d ...):                           4   6   3

       Parameters of the local part of the GTH pseudopotential:

                          rloc        C1          C2          C3          C4
                        0.375000    7.474704   -0.370264

       Parameters of the non-local part of the GTH pseudopotential:

                   l      r(l)      h(i,j,l)

                   0    0.327795    1.940878    4.725688
                                    4.725688   -6.100837
                   1    0.244766   -5.978167    9.358639
                                    9.358639  -11.073291
                   2    0.241739   -9.499891

     A DFT+U correction is applied to atoms of this atomic kind:
       Angular quantum momentum number L:                                      2
       U(eff) = (U - J) value in [eV]:                                     6.000


 MOLECULE KIND INFORMATION


 All atoms are their own molecule, skipping detailed information


 TOTAL NUMBERS AND MAXIMUM NUMBERS

  Total number of            - Atomic kinds:                                   3
                             - Atoms:                                        216
                             - Shell sets:                                   216
                             - Shells:                                       504
                             - Primitive Cartesian functions:               1404
                             - Cartesian basis functions:                   1116
                             - Spherical basis functions:                   1080

  Maximum angular momentum of- Orbital basis functions:                        2
                             - Local part of the GTH pseudopotential:          2
                             - Non-local part of the GTH pseudopotential:      4


 MODULE QUICKSTEP:  ATOMIC COORDINATES IN angstrom

  Atom  Kind  Element       X           Y           Z          Z(eff)       Mass

       1     1 Bi  83    2.580319    1.282982   10.239967      5.00     208.9804
       2     1 Bi  83    2.568155    6.375488   10.227066      5.00     208.9804
       3     1 Bi  83    2.519952   11.470323   10.233541      5.00     208.9804
       4     1 Bi  83    7.769608    1.299798   10.186000      5.00     208.9804
       5     1 Bi  83    7.766120    6.340282   10.185999      5.00     208.9804
       6     1 Bi  83    7.716793   11.460120   10.236685      5.00     208.9804
       7     1 Bi  83   12.967572    1.264593   10.227065      5.00     208.9804
       8     1 Bi  83   12.955409    6.357099   10.239968      5.00     208.9804
       9     1 Bi  83   12.913633   11.449918   10.233541      5.00     208.9804
      10     1 Bi  83    2.585844    3.824756    1.480700      5.00     208.9804
      11     1 Bi  83    2.540402    8.920729    1.463459      5.00     208.9804
      12     1 Bi  83    2.504081   14.019572    1.476765      5.00     208.9804
      13     1 Bi  83    7.767864    3.820041    1.466865      5.00     208.9804
      14     1 Bi  83    7.730211    8.893615    1.458512      5.00     208.9804
      15     1 Bi  83    7.703376   14.026624    1.458512      5.00     208.9804
      16     1 Bi  83   12.949885    3.815324    1.480700      5.00     208.9804
      17     1 Bi  83   12.929504    8.900668    1.476765      5.00     208.9804
      18     1 Bi  83   12.893184   13.999512    1.463459      5.00     208.9804
      19     1 Bi  83   -0.008459    1.276673    7.322907      5.00     208.9804
      20     1 Bi  83   -0.042614    6.363416    7.322908      5.00     208.9804
      21     1 Bi  83   -0.076608   11.460123    7.320744      5.00     208.9804
      22     1 Bi  83    5.202961    1.308893    7.347879      5.00     208.9804
      23     1 Bi  83    5.182729    6.360018    7.285899      5.00     208.9804
      24     1 Bi  83    5.114641   11.470257    7.321028      5.00     208.9804
      25     1 Bi  83   10.352997    1.280071    7.285900      5.00     208.9804
      26     1 Bi  83   10.332768    6.331189    7.347879      5.00     208.9804
      27     1 Bi  83   10.318945   11.449984    7.321028      5.00     208.9804
      28     1 Bi  83   -0.025536    3.820045    4.380618      5.00     208.9804
      29     1 Bi  83   -0.057037    8.907172    4.382969      5.00     208.9804
      30     1 Bi  83   -0.096179   14.013074    4.382969      5.00     208.9804
      31     1 Bi  83    5.191769    3.837502    4.422702      5.00     208.9804
      32     1 Bi  83    5.134404    8.931001    4.375076      5.00     208.9804
      33     1 Bi  83    5.103763   14.032558    4.389418      5.00     208.9804
      34     1 Bi  83   10.343959    3.802583    4.422701      5.00     208.9804
      35     1 Bi  83   10.329823    8.887682    4.389418      5.00     208.9804
      36     1 Bi  83   10.299180   13.989243    4.375077      5.00     208.9804
      37     2 O    8    3.891565    2.020419    0.521722      6.00      15.9994
      38     2 O    8    3.859240    7.120755    0.517280      6.00      15.9994
      39     2 O    8    3.829754   12.215866    0.518835      6.00      15.9994
      40     2 O    8    9.080439    1.982714    0.523834      6.00      15.9994
      41     2 O    8    9.058185    7.075829    0.520582      6.00      15.9994
      42     2 O    8    9.014449   12.173255    0.522821      6.00      15.9994
      43     2 O    8   14.279953    1.984270    0.520778      6.00      15.9994
      44     2 O    8   14.251923    7.077636    0.523830      6.00      15.9994
      45     2 O    8   14.214168   12.169263    0.520936      6.00      15.9994
      46     2 O    8    3.298900    2.544104    3.443493      6.00      15.9994
      47     2 O    8    3.268867    7.641470    3.447087      6.00      15.9994
      48     2 O    8    3.240958   12.740144    3.448903      6.00      15.9994
      49     2 O    8    8.500769    2.535579    3.452343      6.00      15.9994
      50     2 O    8    8.468778    7.580969    3.459497      6.00      15.9994
      51     2 O    8    8.432048   12.729304    3.451192      6.00      15.9994
      52     2 O    8   13.696576    2.544264    3.449683      6.00      15.9994
      53     2 O    8   13.670718    7.633853    3.451768      6.00      15.9994
      54     2 O    8   13.628122   12.724339    3.454416      6.00      15.9994
      55     2 O    8    1.281620    4.556917    6.373675      6.00      15.9994
      56     2 O    8    1.242351    9.634615    6.374141      6.00      15.9994
      57     2 O    8    1.211523   14.756898    6.371099      6.00      15.9994
      58     2 O    8    6.536200    4.696006    6.252789      6.00      15.9994
      59     2 O    8    6.436380    9.671577    6.375246      6.00      15.9994
      60     2 O    8    6.430609   14.758546    6.368109      6.00      15.9994
      61     2 O    8   11.660360    4.522793    6.377657      6.00      15.9994
      62     2 O    8   11.629482    9.614814    6.372328      6.00      15.9994
      63     2 O    8   11.602831   14.709060    6.366843      6.00      15.9994
      64     2 O    8    0.716475   -0.002617    9.299515      6.00      15.9994
      65     2 O    8    0.689410    5.091817    9.302422      6.00      15.9994
      66     2 O    8    0.656340   10.188516    9.300963      6.00      15.9994
      67     2 O    8    5.916124   -0.000668    9.300882      6.00      15.9994
      68     2 O    8    5.915868    5.094876    9.267991      6.00      15.9994
      69     2 O    8    5.853096   10.187928    9.299151      6.00      15.9994
      70     2 O    8   11.116707   -0.010005    9.312128      6.00      15.9994
      71     2 O    8   11.138617    5.086217    9.312864      6.00      15.9994
      72     2 O    8   11.048882   10.178109    9.309654      6.00      15.9994
      73     2 O    8    1.762865   15.286390    3.451770      6.00      15.9994
      74     2 O    8    1.839153    5.095819    3.449684      6.00      15.9994
      75     2 O    8    1.805462   10.195904    3.454419      6.00      15.9994
      76     2 O    8    6.964808   15.339270    3.459498      6.00      15.9994
      77     2 O    8    7.034958    5.104505    3.452344      6.00      15.9994
      78     2 O    8    7.001538   10.190935    3.451192      6.00      15.9994
      79     2 O    8   12.164720   15.278768    3.447088      6.00      15.9994
      80     2 O    8   12.236829    5.095976    3.443493      6.00      15.9994
      81     2 O    8   12.192629   10.180095    3.448904      6.00      15.9994
      82     2 O    8    0.709218    2.549901    2.401182      6.00      15.9994
      83     2 O    8    0.676690    7.638488    2.402709      6.00      15.9994
      84     2 O    8    0.638536   12.733675    2.404207      6.00      15.9994
      85     2 O    8    5.902940    2.552405    2.398869      6.00      15.9994
      86     2 O    8    5.864701    7.643151    2.401882      6.00      15.9994
      87     2 O    8    5.836528   12.736539    2.404630      6.00      15.9994
      88     2 O    8   11.099816    2.530434    2.397251      6.00      15.9994
      89     2 O    8   11.066421    7.633305    2.400773      6.00      15.9994
      90     2 O    8   11.033952   12.718071    2.392399      6.00      15.9994
      91     2 O    8    4.397111    2.553861    9.312864      6.00      15.9994
      92     2 O    8    4.419021    7.650085    9.312129      6.00      15.9994
      93     2 O    8    4.384704   12.742130    9.309655      6.00      15.9994
      94     2 O    8    9.619862    2.545201    9.268005      6.00      15.9994
      95     2 O    8    9.619604    7.640747    9.300882      6.00      15.9994
      96     2 O    8    9.580490   12.732311    9.299151      6.00      15.9994
      97     2 O    8   14.846318    2.548264    9.302423      6.00      15.9994
      98     2 O    8   14.819253    7.642699    9.299517      6.00      15.9994
      99     2 O    8   14.777246   12.731724    9.300964      6.00      15.9994
     100     2 O    8    1.274822    3.112483   11.183760      6.00      15.9994
     101     2 O    8    1.241684    8.202362   11.181852      6.00      15.9994
     102     2 O    8    1.202382   13.298997   11.182888      6.00      15.9994
     103     2 O    8    6.462380    3.112294   11.178693      6.00      15.9994
     104     2 O    8    6.431249    8.206152   11.184550      6.00      15.9994
     105     2 O    8    6.399459   13.295809   11.183785      6.00      15.9994
     106     2 O    8   11.603552    3.061263   11.179552      6.00      15.9994
     107     2 O    8   11.622297    8.161871   11.185934      6.00      15.9994
     108     2 O    8   11.590583   13.251287   11.185493      6.00      15.9994
     109     2 O    8    1.845414    2.551253    8.250077      6.00      15.9994
     110     2 O    8    1.826190    7.641559    8.254836      6.00      15.9994
     111     2 O    8    1.787676   12.740592    8.248102      6.00      15.9994
     112     2 O    8    6.930972    2.606435    8.318078      6.00      15.9994
     113     2 O    8    7.019005    7.643593    8.249234      6.00      15.9994
     114     2 O    8    6.979593   12.742064    8.251845      6.00      15.9994
     115     2 O    8   12.244817    2.551998    8.258353      6.00      15.9994
     116     2 O    8   12.222013    7.644194    8.264229      6.00      15.9994
     117     2 O    8   12.179089   12.730624    8.256564      6.00      15.9994
     118     2 O    8    3.882798    0.566651    5.324340      6.00      15.9994
     119     2 O    8    3.852188    5.661291    5.329718      6.00      15.9994
     120     2 O    8    3.811646   10.760572    5.334556      6.00      15.9994
     121     2 O    8    9.084693    0.461648    5.323121      6.00      15.9994
     122     2 O    8    9.053883    5.610220    5.348986      6.00      15.9994
     123     2 O    8    9.005456   10.713450    5.331950      6.00      15.9994
     124     2 O    8   14.276523    0.555025    5.328762      6.00      15.9994
     125     2 O    8   14.238530    5.619542    5.334299      6.00      15.9994
     126     2 O    8   14.205232   10.713795    5.332632      6.00      15.9994
     127     2 O    8    4.367165   15.286933    2.400773      6.00      15.9994
     128     2 O    8    4.435913    5.109644    2.397251      6.00      15.9994
     129     2 O    8    4.399633   10.202168    2.392397      6.00      15.9994
     130     2 O    8    9.568884   15.277088    2.401881      6.00      15.9994
     131     2 O    8    9.632788    5.087674    2.398868      6.00      15.9994
     132     2 O    8    9.597058   10.183700    2.404630      6.00      15.9994
     133     2 O    8   14.756894   15.281752    2.402708      6.00      15.9994
     134     2 O    8   14.826510    5.090181    2.401181      6.00      15.9994
     135     2 O    8   14.795050   10.186565    2.404206      6.00      15.9994
     136     2 O    8    3.932178    4.578817   11.179550      6.00      15.9994
     137     2 O    8    3.843002    9.668953   11.185494      6.00      15.9994
     138     2 O    8    3.811288   14.758369   11.185934      6.00      15.9994
     139     2 O    8    9.073348    4.527788   11.178695      6.00      15.9994
     140     2 O    8    9.034127    9.624430   11.183785      6.00      15.9994
     141     2 O    8    9.002337   14.714088   11.184550      6.00      15.9994
     142     2 O    8   14.260907    4.527597   11.183761      6.00      15.9994
     143     2 O    8   14.231204    9.621243   11.182888      6.00      15.9994
     144     2 O    8   14.191902   14.717877   11.181852      6.00      15.9994
     145     2 O    8    3.313715   -0.004114    8.264229      6.00      15.9994
     146     2 O    8    3.290914    5.088081    8.258355      6.00      15.9994
     147     2 O    8    3.254498   10.189614    8.256565      6.00      15.9994
     148     2 O    8    8.516724   -0.003512    8.249234      6.00      15.9994
     149     2 O    8    8.604757    5.033647    8.318081      6.00      15.9994
     150     2 O    8    8.453993   10.178175    8.251845      6.00      15.9994
     151     2 O    8   13.709538   -0.001477    8.254838      6.00      15.9994
     152     2 O    8   13.690311    5.088834    8.250083      6.00      15.9994
     153     2 O    8   13.645910   10.179649    8.248104      6.00      15.9994
     154     2 O    8    1.297200    2.020554    5.334301      6.00      15.9994
     155     2 O    8    1.259206    7.085075    5.328761      6.00      15.9994
     156     2 O    8    1.228355   12.206459    5.332633      6.00      15.9994
     157     2 O    8    6.481847    2.029864    5.348989      6.00      15.9994
     158     2 O    8    6.451036    7.178444    5.323123      6.00      15.9994
     159     2 O    8    6.428128   12.206789    5.331950      6.00      15.9994
     160     2 O    8   11.683541    1.978791    5.329718      6.00      15.9994
     161     2 O    8   11.652929    7.073431    5.324340      6.00      15.9994
     162     2 O    8   11.621937   12.159669    5.334555      6.00      15.9994
     163     2 O    8    3.875367    3.117290    6.377656      6.00      15.9994
     164     2 O    8    3.830753    8.211182    6.366842      6.00      15.9994
     165     2 O    8    3.804104   13.305427    6.372328      6.00      15.9994
     166     2 O    8    8.999531    2.944088    6.252795      6.00      15.9994
     167     2 O    8    9.002981    8.161695    6.368110      6.00      15.9994
     168     2 O    8    8.997206   13.248664    6.375245      6.00      15.9994
     169     2 O    8   14.254118    3.083206    6.373678      6.00      15.9994
     170     2 O    8   14.222061    8.163351    6.371098      6.00      15.9994
     171     2 O    8   14.191235   13.285642    6.374141      6.00      15.9994
     172     2 O    8    1.283805    0.562446    0.523830      6.00      15.9994
     173     2 O    8    1.255776    5.655811    0.520778      6.00      15.9994
     174     2 O    8    1.219418   10.750977    0.520936      6.00      15.9994
     175     2 O    8    6.477543    0.564251    0.520582      6.00      15.9994
     176     2 O    8    6.455289    5.657367    0.523833      6.00      15.9994
     177     2 O    8    6.419137   10.746984    0.522821      6.00      15.9994
     178     2 O    8   11.676487    0.519325    0.517280      6.00      15.9994
     179     2 O    8   11.644163    5.619661    0.521722      6.00      15.9994
     180     2 O    8   11.603831   10.704375    0.518835      6.00      15.9994
     181     3 V   23   -0.011992    1.276528    1.449249     13.00      50.9415
     182     3 V   23   -0.039079    6.363553    1.449248     13.00      50.9415
     183     3 V   23   -0.076607   11.460120    1.450053     13.00      50.9415
     184     3 V   23    5.185646    1.285190    1.446139     13.00      50.9415
     185     3 V   23    5.152669    6.373621    1.435633     13.00      50.9415
     186     3 V   23    5.119985   11.474121    1.440447     13.00      50.9415
     187     3 V   23   10.383058    1.266460    1.435633     13.00      50.9415
     188     3 V   23   10.350082    6.354890    1.446138     13.00      50.9415
     189     3 V   23   10.313600   11.446119    1.440448     13.00      50.9415
     190     3 V   23    2.569113    3.825693    7.300480     13.00      50.9415
     191     3 V   23    2.540906    8.916476    7.299287     13.00      50.9415
     192     3 V   23    2.502113   14.020281    7.295237     13.00      50.9415
     193     3 V   23    7.767862    3.820045    7.267253     13.00      50.9415
     194     3 V   23    7.727236    8.918777    7.287701     13.00      50.9415
     195     3 V   23    7.706350   14.001463    7.287703     13.00      50.9415
     196     3 V   23   12.966612    3.814396    7.300485     13.00      50.9415
     197     3 V   23   12.931472    8.899962    7.295240     13.00      50.9415
     198     3 V   23   12.892677   14.003768    7.299289     13.00      50.9415
     199     3 V   23   -0.025536    3.820041   10.258306     13.00      50.9415
     200     3 V   23   -0.056923    8.913429   10.255855     13.00      50.9415
     201     3 V   23   -0.096290   14.006812   10.255854     13.00      50.9415
     202     3 V   23    5.183832    3.824687   10.226033     13.00      50.9415
     203     3 V   23    5.134525    8.921800   10.264472     13.00      50.9415
     204     3 V   23    5.097669   14.015840   10.265396     13.00      50.9415
     205     3 V   23   10.351897    3.815395   10.226038     13.00      50.9415
     206     3 V   23   10.335917    8.904400   10.265396     13.00      50.9415
     207     3 V   23   10.299061   13.998440   10.264471     13.00      50.9415
     208     3 V   23    2.585462    1.282951    4.405829     13.00      50.9415
     209     3 V   23    2.554979    6.371255    4.402481     13.00      50.9415
     210     3 V   23    2.518315   11.473045    4.406634     13.00      50.9415
     211     3 V   23    7.799910    1.291169    4.452011     13.00      50.9415
     212     3 V   23    7.735815    6.348915    4.452013     13.00      50.9415
     213     3 V   23    7.716793   11.460120    4.411949     13.00      50.9415
     214     3 V   23   12.980746    1.268829    4.402478     13.00      50.9415
     215     3 V   23   12.950264    6.357133    4.405826     13.00      50.9415
     216     3 V   23   12.915268   11.447199    4.406632     13.00      50.9415




 SCF PARAMETERS         Density guess:                                   RESTART
                        --------------------------------------------------------
                        max_scf:                                             500
                        max_scf_history:                                       0
                        max_diis:                                              4
                        --------------------------------------------------------
                        eps_scf:                                        1.00E-05
                        eps_scf_history:                                0.00E+00
                        eps_diis:                                       5.00E-01
                        eps_eigval:                                     1.00E-05
                        --------------------------------------------------------
                        level_shift [a.u.]:                                 0.00
                        --------------------------------------------------------
                        Mixing method:                            BROYDEN_MIXING
                                                charge density mixing in g-space
                        --------------------------------------------------------
                        Outer loop SCF in use 
                        No variables optimised in outer loop
                        eps_scf                                         1.00E-05
                        max_scf                                              500
                        No outer loop optimization
                        step_size                                       5.00E-01

 PW_GRID| Information for grid number                                          1
 PW_GRID| Grid distributed over                                   128 processors
 PW_GRID| Real space group dimensions                                   128    1
 PW_GRID| the grid is blocked:                                                NO
 PW_GRID| Cutoff [a.u.]                                                    325.0
 PW_GRID| spherical cutoff:                                                   NO
 PW_GRID|   Bounds   1           -120     119                Points:         240
 PW_GRID|   Bounds   2           -120     119                Points:         240
 PW_GRID|   Bounds   3            -90      89                Points:         180
 PW_GRID| Volume element (a.u.^3)  0.1814E-02     Volume (a.u.^3)     18811.9713
 PW_GRID| Grid span                                                    FULLSPACE
 PW_GRID|   Distribution                         Average         Max         Min
 PW_GRID|   G-Vectors                            81000.0       81120       80880
 PW_GRID|   G-Rays                                 337.5         338         337
 PW_GRID|   Real Space Points                    81000.0       86400       43200

 PW_GRID| Information for grid number                                          2
 PW_GRID| Grid distributed over                                   128 processors
 PW_GRID| Real space group dimensions                                   128    1
 PW_GRID| the grid is blocked:                                                NO
 PW_GRID| Cutoff [a.u.]                                                    108.3
 PW_GRID| spherical cutoff:                                                   NO
 PW_GRID|   Bounds   1            -70      69                Points:         140
 PW_GRID|   Bounds   2            -67      67                Points:         135
 PW_GRID|   Bounds   3            -52      52                Points:         105
 PW_GRID| Volume element (a.u.^3)  0.9479E-02     Volume (a.u.^3)     18811.9713
 PW_GRID| Grid span                                                    FULLSPACE
 PW_GRID|   Distribution                         Average         Max         Min
 PW_GRID|   G-Vectors                            15503.9       16100       14840
 PW_GRID|   G-Rays                                 110.7         115         106
 PW_GRID|   Real Space Points                    15503.9       28350       14175

 PW_GRID| Information for grid number                                          3
 PW_GRID| Grid distributed over                                   128 processors
 PW_GRID| Real space group dimensions                                     8   16
 PW_GRID| the grid is blocked:                                                NO
 PW_GRID| Cutoff [a.u.]                                                     36.1
 PW_GRID| spherical cutoff:                                                   NO
 PW_GRID|   Bounds   1            -40      39                Points:          80
 PW_GRID|   Bounds   2            -40      39                Points:          80
 PW_GRID|   Bounds   3            -30      29                Points:          60
 PW_GRID| Volume element (a.u.^3)  0.4899E-01     Volume (a.u.^3)     18811.9713
 PW_GRID| Grid span                                                    FULLSPACE
 PW_GRID|   Distribution                         Average         Max         Min
 PW_GRID|   G-Vectors                             3000.0        3360        2560
 PW_GRID|   G-Rays                                  37.5          42          32
 PW_GRID|   Real Space Points                     3000.0        3000        3000

 PW_GRID| Information for grid number                                          4
 PW_GRID| Grid distributed over                                   128 processors
 PW_GRID| Real space group dimensions                                     8   16
 PW_GRID| the grid is blocked:                                                NO
 PW_GRID| Cutoff [a.u.]                                                     12.0
 PW_GRID| spherical cutoff:                                                   NO
 PW_GRID|   Bounds   1            -24      23                Points:          48
 PW_GRID|   Bounds   2            -22      22                Points:          45
 PW_GRID|   Bounds   3            -17      17                Points:          35
 PW_GRID| Volume element (a.u.^3)  0.2488         Volume (a.u.^3)     18811.9713
 PW_GRID| Grid span                                                    FULLSPACE
 PW_GRID|   Distribution                         Average         Max         Min
 PW_GRID|   G-Vectors                              590.6         672         480
 PW_GRID|   G-Rays                                  12.3          14          10
 PW_GRID|   Real Space Points                      590.6         630         420

 PW_GRID| Information for grid number                                          5
 PW_GRID| Grid distributed over                                   128 processors
 PW_GRID| Real space group dimensions                                     8   16
 PW_GRID| the grid is blocked:                                                NO
 PW_GRID| Cutoff [a.u.]                                                      4.0
 PW_GRID| spherical cutoff:                                                   NO
 PW_GRID|   Bounds   1            -13      13                Points:          27
 PW_GRID|   Bounds   2            -13      13                Points:          27
 PW_GRID|   Bounds   3            -10       9                Points:          20
 PW_GRID| Volume element (a.u.^3)   1.290         Volume (a.u.^3)     18811.9713
 PW_GRID| Grid span                                                    FULLSPACE
 PW_GRID|   Distribution                         Average         Max         Min
 PW_GRID|   G-Vectors                              113.9         135          81
 PW_GRID|   G-Rays                                   4.2           5           3
 PW_GRID|   Real Space Points                      113.9         160          60

 PW_GRID| Information for grid number                                          6
 PW_GRID| Grid distributed over                                   128 processors
 PW_GRID| Real space group dimensions                                     8   16
 PW_GRID| the grid is blocked:                                                NO
 PW_GRID| Cutoff [a.u.]                                                      1.3
 PW_GRID| spherical cutoff:                                                   NO
 PW_GRID|   Bounds   1             -7       7                Points:          15
 PW_GRID|   Bounds   2             -7       7                Points:          15
 PW_GRID|   Bounds   3             -5       5                Points:          11
 PW_GRID| Volume element (a.u.^3)   7.601         Volume (a.u.^3)     18811.9713
 PW_GRID| Grid span                                                    FULLSPACE
 PW_GRID|   Distribution                         Average         Max         Min
 PW_GRID|   G-Vectors                               19.3          45           0
 PW_GRID|   G-Rays                                   1.3           3           0
 PW_GRID|   Real Space Points                       19.3          22           0

 PW_GRID| Information for grid number                                          7
 PW_GRID| Grid distributed over                                   128 processors
 PW_GRID| Real space group dimensions                                     8   16
 PW_GRID| the grid is blocked:                                                NO
 PW_GRID| Cutoff [a.u.]                                                      0.4
 PW_GRID| spherical cutoff:                                                   NO
 PW_GRID|   Bounds   1             -4       4                Points:           9
 PW_GRID|   Bounds   2             -4       4                Points:           9
 PW_GRID|   Bounds   3             -3       3                Points:           7
 PW_GRID| Volume element (a.u.^3)   33.18         Volume (a.u.^3)     18811.9713
 PW_GRID| Grid span                                                    FULLSPACE
 PW_GRID|   Distribution                         Average         Max         Min
 PW_GRID|   G-Vectors                                4.4           9           0
 PW_GRID|   G-Rays                                   0.5           1           0
 PW_GRID|   Real Space Points                        4.4          14           0

 PW_GRID| Information for grid number                                          8
 PW_GRID| Grid distributed over                                   128 processors
 PW_GRID| Real space group dimensions                                     8   16
 PW_GRID| the grid is blocked:                                                NO
 PW_GRID| Cutoff [a.u.]                                                      0.1
 PW_GRID| spherical cutoff:                                                   NO
 PW_GRID|   Bounds   1             -2       2                Points:           5
 PW_GRID|   Bounds   2             -2       2                Points:           5
 PW_GRID|   Bounds   3             -1       1                Points:           3
 PW_GRID| Volume element (a.u.^3)   250.8         Volume (a.u.^3)     18811.9713
 PW_GRID| Grid span                                                    FULLSPACE
 PW_GRID|   Distribution                         Average         Max         Min
 PW_GRID|   G-Vectors                                0.6           5           0
 PW_GRID|   G-Rays                                   0.1           1           0
 PW_GRID|   Real Space Points                        0.6           3           0

 PW_GRID| Information for grid number                                          9
 PW_GRID| Grid distributed over                                   128 processors
 PW_GRID| Real space group dimensions                                     8   16
 PW_GRID| the grid is blocked:                                                NO
 PW_GRID| Cutoff [a.u.]                                                      0.0
 PW_GRID| spherical cutoff:                                                   NO
 PW_GRID|   Bounds   1             -1       1                Points:           3
 PW_GRID|   Bounds   2             -1       1                Points:           3
 PW_GRID|   Bounds   3             -1       1                Points:           3
 PW_GRID| Volume element (a.u.^3)   696.7         Volume (a.u.^3)     18811.9713
 PW_GRID| Grid span                                                    FULLSPACE
 PW_GRID|   Distribution                         Average         Max         Min
 PW_GRID|   G-Vectors                                0.2           3           0
 PW_GRID|   G-Rays                                   0.1           1           0
 PW_GRID|   Real Space Points                        0.2           3           0

 PW_GRID| Information for grid number                                         10
 PW_GRID| Grid distributed over                                   128 processors
 PW_GRID| Real space group dimensions                                     8   16
 PW_GRID| the grid is blocked:                                                NO
 PW_GRID| Cutoff [a.u.]                                                      0.0
 PW_GRID| spherical cutoff:                                                   NO
 PW_GRID|   Bounds   1              0       0                Points:           1
 PW_GRID|   Bounds   2              0       0                Points:           1
 PW_GRID|   Bounds   3              0       0                Points:           1
 PW_GRID| Volume element (a.u.^3)  0.1881E+05     Volume (a.u.^3)     18811.9713
 PW_GRID| Grid span                                                    FULLSPACE
 PW_GRID|   Distribution                         Average         Max         Min
 PW_GRID|   G-Vectors                                0.0           1           0
 PW_GRID|   G-Rays                                   0.0           1           0
 PW_GRID|   Real Space Points                        0.0           1           0

 POISSON| Solver                                                        PERIODIC
 POISSON| Periodicity                                                        XYZ

 RS_GRID| Information for grid number                                          1
 RS_GRID|   Bounds   1           -120     119                Points:         240
 RS_GRID|   Bounds   2           -120     119                Points:         240
 RS_GRID|   Bounds   3            -90      89                Points:         180
 RS_GRID| Real space distribution over                                  8 groups
 RS_GRID| Real space distribution along direction                              1
 RS_GRID| Border size                                                         41
 RS_GRID| Real space distribution over                                 16 groups
 RS_GRID| Real space distribution along direction                              2
 RS_GRID| Border size                                                         41
 RS_GRID|   Distribution                         Average         Max         Min
 RS_GRID|   Planes                                 112.0         112         112
 RS_GRID|   Distribution                         Average         Max         Min
 RS_GRID|   Planes                                  97.0          97          97

 RS_GRID| Information for grid number                                          2
 RS_GRID|   Bounds   1            -70      69                Points:         140
 RS_GRID|   Bounds   2            -67      67                Points:         135
 RS_GRID|   Bounds   3            -52      52                Points:         105
 RS_GRID| Real space distribution over                                  8 groups
 RS_GRID| Real space distribution along direction                              1
 RS_GRID| Border size                                                         27
 RS_GRID| Real space distribution over                                 16 groups
 RS_GRID| Real space distribution along direction                              2
 RS_GRID| Border size                                                         27
 RS_GRID|   Distribution                         Average         Max         Min
 RS_GRID|   Planes                                  71.5          72          71
 RS_GRID|   Distribution                         Average         Max         Min
 RS_GRID|   Planes                                  62.4          63          62

 RS_GRID| Information for grid number                                          3
 RS_GRID|   Bounds   1            -40      39                Points:          80
 RS_GRID|   Bounds   2            -40      39                Points:          80
 RS_GRID|   Bounds   3            -30      29                Points:          60
 RS_GRID| Real space fully replicated
 RS_GRID| Group size                                                           1

 RS_GRID| Information for grid number                                          4
 RS_GRID|   Bounds   1            -24      23                Points:          48
 RS_GRID|   Bounds   2            -22      22                Points:          45
 RS_GRID|   Bounds   3            -17      17                Points:          35
 RS_GRID| Real space fully replicated
 RS_GRID| Group size                                                           1

 RS_GRID| Information for grid number                                          5
 RS_GRID|   Bounds   1            -13      13                Points:          27
 RS_GRID|   Bounds   2            -13      13                Points:          27
 RS_GRID|   Bounds   3            -10       9                Points:          20
 RS_GRID| Real space fully replicated
 RS_GRID| Group size                                                           1

 RS_GRID| Information for grid number                                          6
 RS_GRID|   Bounds   1             -7       7                Points:          15
 RS_GRID|   Bounds   2             -7       7                Points:          15
 RS_GRID|   Bounds   3             -5       5                Points:          11
 RS_GRID| Real space fully replicated
 RS_GRID| Group size                                                           1

 RS_GRID| Information for grid number                                          7
 RS_GRID|   Bounds   1             -4       4                Points:           9
 RS_GRID|   Bounds   2             -4       4                Points:           9
 RS_GRID|   Bounds   3             -3       3                Points:           7
 RS_GRID| Real space fully replicated
 RS_GRID| Group size                                                           1

 RS_GRID| Information for grid number                                          8
 RS_GRID|   Bounds   1             -2       2                Points:           5
 RS_GRID|   Bounds   2             -2       2                Points:           5
 RS_GRID|   Bounds   3             -1       1                Points:           3
 RS_GRID| Real space fully replicated
 RS_GRID| Group size                                                           1

 RS_GRID| Information for grid number                                          9
 RS_GRID|   Bounds   1             -1       1                Points:           3
 RS_GRID|   Bounds   2             -1       1                Points:           3
 RS_GRID|   Bounds   3             -1       1                Points:           3
 RS_GRID| Real space fully replicated
 RS_GRID| Group size                                                           1

 RS_GRID| Information for grid number                                         10
 RS_GRID|   Bounds   1              0       0                Points:           1
 RS_GRID|   Bounds   2              0       0                Points:           1
 RS_GRID|   Bounds   3              0       0                Points:           1
 RS_GRID| Real space fully replicated
 RS_GRID| Group size                                                           1

 Spin 1

 Number of electrons:                                                        757
 Number of occupied orbitals:                                                757
 Number of molecular orbitals:                                               757

 Spin 2

 Number of electrons:                                                        756
 Number of occupied orbitals:                                                756
 Number of molecular orbitals:                                               756

 Number of orbital functions:                                               1080
 Number of independent orbital functions:                                   1080

 Extrapolation method: initial_guess


 SCF WAVEFUNCTION OPTIMIZATION

  Step     Update method      Time    Convergence         Total energy    Change
  ------------------------------------------------------------------------------
     1 NoMix/Diag. 0.40E+00    4.2     0.00009564     -5073.7482182606 -5.07E+03
     2 Broy./Diag. 0.40E+00    5.7     0.00014170     -5073.7475241296  6.94E-04
     3 Broy./Diag. 0.40E+00    5.7     0.00002595     -5073.7487848284 -1.26E-03
     4 Broy./Diag. 0.40E+00    5.9     0.00004148     -5073.7485896667  1.95E-04
     5 Broy./Diag. 0.40E+00    5.8     0.00001587     -5073.7481467805  4.43E-04
     6 Broy./Diag. 0.40E+00    5.9     0.00000523     -5073.7480420112  1.05E-04

  *** SCF run converged in     6 steps ***


  Electronic density on regular grids:      -1512.9999999901        0.0000000099
  Core density on regular grids:             1511.9999999989       -0.0000000011
  Total charge density on r-space grids:       -0.9999999911
  Total charge density g-space grids:          -0.9999999911

  Overlap energy of the core charge distribution:               0.00000000289438
  Self energy of the core charge distribution:             -10976.12486590282424
  Core Hamiltonian energy:                                   3052.60975992662406
  Hartree energy:                                            3715.94216666544617
  Exchange-correlation energy:                               -873.96083385397947

  DFT+U energy:                                                 7.78573115062536

  Total energy:                                             -5073.74804201121424

  outer SCF iter =    1 RMS gradient =   0.52E-05 energy =      -5073.7480420112
  outer SCF loop converged in   1 iterations or    6 steps


  Integrated absolute spin density  :                               1.3911579412
  Ideal and single determinant S**2 :                    0.750000       0.776855

 !-----------------------------------------------------------------------------!
                     Mulliken Population Analysis

 #  Atom  Element  Kind  Atomic population (alpha,beta) Net charge  Spin moment
       1     Bi       1         1.856105     1.855165     1.288729     0.000940
       2     Bi       1         1.857054     1.856747     1.286199     0.000307
       3     Bi       1         1.857483     1.857415     1.285102     0.000068
       4     Bi       1         1.864220     1.860834     1.274946     0.003387
       5     Bi       1         1.864221     1.860834     1.274945     0.003387
       6     Bi       1         1.857341     1.857290     1.285369     0.000051
       7     Bi       1         1.857054     1.856747     1.286200     0.000307
       8     Bi       1         1.856105     1.855165     1.288729     0.000940
       9     Bi       1         1.857483     1.857415     1.285102     0.000068
      10     Bi       1         1.856631     1.856588     1.286781     0.000044
      11     Bi       1         1.857074     1.857034     1.285892     0.000040
      12     Bi       1         1.857256     1.857208     1.285537     0.000048
      13     Bi       1         1.853325     1.853292     1.293383     0.000033
      14     Bi       1         1.856629     1.856550     1.286821     0.000080
      15     Bi       1         1.856629     1.856550     1.286821     0.000080
      16     Bi       1         1.856631     1.856588     1.286781     0.000044
      17     Bi       1         1.857255     1.857208     1.285537     0.000048
      18     Bi       1         1.857074     1.857034     1.285892     0.000040
      19     Bi       1         1.856318     1.856181     1.287501     0.000138
      20     Bi       1         1.856317     1.856180     1.287503     0.000138
      21     Bi       1         1.858637     1.858571     1.282792     0.000066
      22     Bi       1         1.867287     1.864051     1.268662     0.003236
      23     Bi       1         1.867276     1.864844     1.267880     0.002432
      24     Bi       1         1.856948     1.856776     1.286275     0.000172
      25     Bi       1         1.867276     1.864844     1.267880     0.002433
      26     Bi       1         1.867287     1.864051     1.268662     0.003236
      27     Bi       1         1.856948     1.856776     1.286275     0.000172
      28     Bi       1         1.856998     1.856977     1.286025     0.000021
      29     Bi       1         1.857730     1.857649     1.284621     0.000081
      30     Bi       1         1.857730     1.857649     1.284621     0.000081
      31     Bi       1         1.864871     1.861060     1.274069     0.003810
      32     Bi       1         1.856377     1.855279     1.288344     0.001098
      33     Bi       1         1.857041     1.856585     1.286374     0.000456
      34     Bi       1         1.864870     1.861060     1.274070     0.003810
      35     Bi       1         1.857041     1.856585     1.286374     0.000456
      36     Bi       1         1.856377     1.855279     1.288344     0.001098
      37     O        2         3.314555     3.314948    -0.629503    -0.000393
      38     O        2         3.315646     3.316113    -0.631759    -0.000467
      39     O        2         3.314644     3.314871    -0.629515    -0.000227
      40     O        2         3.310608     3.311144    -0.621752    -0.000535
      41     O        2         3.311698     3.312402    -0.624100    -0.000704
      42     O        2         3.313591     3.313927    -0.627519    -0.000336
      43     O        2         3.312628     3.312776    -0.625404    -0.000147
      44     O        2         3.313711     3.313924    -0.627635    -0.000213
      45     O        2         3.313648     3.313696    -0.627344    -0.000048
      46     O        2         3.310431     3.311852    -0.622283    -0.001421
      47     O        2         3.311886     3.312076    -0.623962    -0.000190
      48     O        2         3.312494     3.312931    -0.625425    -0.000437
      49     O        2         3.308079     3.311041    -0.619121    -0.002962
      50     O        2         3.306972     3.308397    -0.615369    -0.001425
      51     O        2         3.311818     3.312264    -0.624081    -0.000446
      52     O        2         3.313233     3.313414    -0.626646    -0.000181
      53     O        2         3.314679     3.315382    -0.630061    -0.000703
      54     O        2         3.312857     3.313162    -0.626019    -0.000304
      55     O        2         3.313034     3.314150    -0.627184    -0.001117
      56     O        2         3.314595     3.314909    -0.629504    -0.000313
      57     O        2         3.314773     3.315088    -0.629861    -0.000314
      58     O        2         3.331747     3.343816    -0.675563    -0.012069
      59     O        2         3.313425     3.314535    -0.627960    -0.001110
      60     O        2         3.311815     3.313142    -0.624957    -0.001326
      61     O        2         3.314115     3.316193    -0.630308    -0.002078
      62     O        2         3.313983     3.314408    -0.628391    -0.000425
      63     O        2         3.310745     3.312717    -0.623463    -0.001972
      64     O        2         3.312162     3.312491    -0.624653    -0.000328
      65     O        2         3.312960     3.313241    -0.626201    -0.000281
      66     O        2         3.313349     3.313589    -0.626938    -0.000240
      67     O        2         3.312338     3.312878    -0.625216    -0.000541
      68     O        2         3.313288     3.314701    -0.627989    -0.001413
      69     O        2         3.312702     3.313669    -0.626372    -0.000967
      70     O        2         3.310278     3.312291    -0.622569    -0.002013
      71     O        2         3.313464     3.314498    -0.627963    -0.001034
      72     O        2         3.312226     3.312388    -0.624615    -0.000162
      73     O        2         3.314679     3.315382    -0.630062    -0.000703
      74     O        2         3.313233     3.313414    -0.626646    -0.000181
      75     O        2         3.312857     3.313162    -0.626019    -0.000304
      76     O        2         3.306972     3.308397    -0.615369    -0.001425
      77     O        2         3.308079     3.311041    -0.619120    -0.002962
      78     O        2         3.311818     3.312264    -0.624081    -0.000446
      79     O        2         3.311887     3.312077    -0.623963    -0.000190
      80     O        2         3.310431     3.311853    -0.622284    -0.001421
      81     O        2         3.312495     3.312931    -0.625426    -0.000437
      82     O        2         3.313429     3.313661    -0.627090    -0.000233
      83     O        2         3.313459     3.313612    -0.627071    -0.000153
      84     O        2         3.313167     3.313215    -0.626383    -0.000048
      85     O        2         3.309022     3.309636    -0.618657    -0.000614
      86     O        2         3.312347     3.312713    -0.625060    -0.000366
      87     O        2         3.311025     3.311272    -0.622297    -0.000246
      88     O        2         3.310782     3.311393    -0.622175    -0.000611
      89     O        2         3.313841     3.314404    -0.628246    -0.000563
      90     O        2         3.312546     3.312861    -0.625406    -0.000315
      91     O        2         3.313464     3.314498    -0.627962    -0.001034
      92     O        2         3.310278     3.312291    -0.622569    -0.002013
      93     O        2         3.312226     3.312388    -0.624614    -0.000162
      94     O        2         3.313288     3.314701    -0.627988    -0.001413
      95     O        2         3.312338     3.312879    -0.625216    -0.000541
      96     O        2         3.312703     3.313669    -0.626372    -0.000967
      97     O        2         3.312960     3.313241    -0.626201    -0.000281
      98     O        2         3.312162     3.312491    -0.624653    -0.000328
      99     O        2         3.313349     3.313589    -0.626938    -0.000240
     100     O        2         3.313823     3.314116    -0.627939    -0.000293
     101     O        2         3.313706     3.314023    -0.627729    -0.000317
     102     O        2         3.313517     3.313736    -0.627254    -0.000219
     103     O        2         3.310693     3.312659    -0.623352    -0.001966
     104     O        2         3.311305     3.312815    -0.624120    -0.001510
     105     O        2         3.313413     3.313623    -0.627036    -0.000210
     106     O        2         3.310176     3.311015    -0.621191    -0.000839
     107     O        2         3.313416     3.313597    -0.627013    -0.000182
     108     O        2         3.315863     3.316517    -0.632380    -0.000654
     109     O        2         3.312523     3.313471    -0.625994    -0.000948
     110     O        2         3.313324     3.313707    -0.627031    -0.000382
     111     O        2         3.313699     3.314055    -0.627754    -0.000355
     112     O        2         3.328149     3.341892    -0.670042    -0.013743
     113     O        2         3.312345     3.314508    -0.626853    -0.002163
     114     O        2         3.311352     3.312612    -0.623964    -0.001260
     115     O        2         3.310697     3.311938    -0.622634    -0.001241
     116     O        2         3.309122     3.311198    -0.620321    -0.002076
     117     O        2         3.313068     3.313351    -0.626419    -0.000283
     118     O        2         3.311230     3.313190    -0.624420    -0.001960
     119     O        2         3.313989     3.314455    -0.628444    -0.000467
     120     O        2         3.312608     3.313055    -0.625663    -0.000447
     121     O        2         3.314822     3.316556    -0.631378    -0.001733
     122     O        2         3.314906     3.317161    -0.632066    -0.002255
     123     O        2         3.313981     3.314394    -0.628375    -0.000412
[...]
        58  O   3px             -0.010790
        77  O   2s              -0.361323
        77  O   3py             -0.067727
        77  O   3pz              0.142556
        77  O   3px             -0.129579
        86  O   3pz              0.010185
       112  O   2s               0.013246
       122  O   2s               0.467154
       122  O   3py             -0.112695
       122  O   3pz              0.253927
       122  O   3px             -0.191720
       131  O   3pz              0.010278
       149  O   2s               0.010491
       150  O   2s               0.010817
       158  O   2s               0.505799
       158  O   3pz              0.150287
       158  O   3px              0.067324
       185  V   3s               0.027426
       188  V   3s               0.031498
       188  V   4d+1            -0.011216
       193  V   3s              -0.056092
       193  V   4d-1             0.018091
       194  V   3s              -0.041406
       194  V   4d-1            -0.013811
       212  V   3pz             -0.057181
       212  V   4d-2             0.092068
       212  V   4d-1            -0.012092
       212  V   4d+2            -0.049634
  EIG. VAL/OCC. =     0.983956 /    0.968169
 -----------------------------
        13  Bi  3py              0.017118
        13  Bi  3pz              0.029819
        14  Bi  3pz             -0.014774
        23  Bi  3pz             -0.012584
        23  Bi  3px             -0.010399
        26  Bi  3pz              0.025788
        31  Bi  3py              0.027914
        31  Bi  3px              0.032456
        32  Bi  3pz             -0.010780
        32  Bi  3px             -0.024886
        34  Bi  3py             -0.014203
        34  Bi  3px             -0.019523
        35  Bi  3py              0.022684
        35  Bi  3px              0.024933
        50  O   2s              -0.216979
        50  O   3pz             -0.167229
        50  O   3px              0.208168
        58  O   3py             -0.011615
        58  O   3pz              0.012672
        58  O   3px             -0.010035
        59  O   3py             -0.010115
        77  O   2s               0.393732
        77  O   3py              0.041499
        77  O   3pz              0.152431
        77  O   3px              0.230543
       112  O   2s               0.010116
       122  O   2s              -0.057635
       122  O   3py             -0.370167
       122  O   3pz              0.254776
       122  O   3px             -0.321874
       150  O   2s              -0.015204
       158  O   2s              -0.128495
       158  O   3py             -0.360953
       158  O   3pz             -0.294445
       158  O   3px             -0.381094
       167  O   3py             -0.013250
       167  O   3pz             -0.014084
       193  V   3s              -0.045552
       193  V   4d-1             0.013279
       194  V   3s               0.062688
       194  V   4d-1             0.018998
       212  V   3py              0.056965
       212  V   3pz              0.011662
       212  V   3px              0.034086
       212  V   4d-2            -0.016415
       212  V   4d-1            -0.029559
       212  V   4d+1            -0.026051
  EIG. VAL/OCC. =     0.987570 /    0.975294
 -----------------------------
        13  Bi  3pz              0.015905
        14  Bi  3pz             -0.015869
        23  Bi  3pz              0.022648
        23  Bi  3px             -0.012705
        26  Bi  3pz             -0.023945
        26  Bi  3px             -0.013866
        31  Bi  3py             -0.023658
        32  Bi  3py              0.032728
        32  Bi  3px             -0.028964
        34  Bi  3py              0.033572
        34  Bi  3px             -0.030251
        35  Bi  3py             -0.021764
        38  O   2s              -0.011692
        50  O   2s               0.047049
        50  O   3py             -0.324670
        50  O   3pz             -0.260848
        50  O   3px              0.319015
        77  O   2s              -0.066302
        77  O   3py             -0.351330
        77  O   3pz              0.274650
        77  O   3px              0.346654
        86  O   3pz              0.011194
        86  O   3px              0.011297
       122  O   2s               0.376840
       122  O   3py              0.222549
       122  O   3pz             -0.172989
       122  O   3px             -0.073762
       131  O   3pz             -0.010729
       131  O   3px              0.011144
       158  O   2s              -0.346763
       158  O   3py              0.221325
       158  O   3pz              0.177792
       158  O   3px             -0.066374
       179  O   2s               0.010890
       185  V   3s               0.049649
       185  V   4d+1             0.014978
       188  V   3s              -0.046189
       188  V   4d+1             0.014086
       212  V   3py              0.041190
       212  V   3px             -0.064144
       212  V   4d-1             0.030397
       212  V   4d+1            -0.029451
 NOTE: IF SOME ORBS ARE EXCLUDED CHECK THE TOTAL CHRG MIGHT NOT REFLECT THE WHOLE FRG CHRG
   MOA FOR FRAGMENTS
   -----------------
  FRAG   POP         CHRG          SPIN
      ----------------------------------------------------
    1     12.09265      0.90735      0.99942
    2     12.09974      0.90026      0.01190
    3     26.30538     -2.30538     -0.03020
    4     26.09778     -2.09778     -0.00757
 ..... END OF MOA ANALYSIS FOR FRAGEMENTS .....
  
 ..... END OF MOA ANALYSIS .....

 ENERGY| Total FORCE_EVAL ( QS ) energy (a.u.):            -5073.748042011214238


 -------------------------------------------------------------------------------
 -                                                                             -
 -                                DBCSR STATISTICS                             -
 -                                                                             -
 -------------------------------------------------------------------------------
 COUNTER                                    TOTAL       BLAS       SMM       ACC
 flops    10 x    21 x    10              5443200     100.0%      0.0%      0.0%
 flops    10 x    20 x    10             10368000     100.0%      0.0%      0.0%
 flops    10 x    21 x     4             10886400     100.0%      0.0%      0.0%
 flops     4 x    21 x    10             10886400     100.0%      0.0%      0.0%
 flops    10 x    20 x     4             20736000     100.0%      0.0%      0.0%
 flops     4 x    20 x    10             20736000     100.0%      0.0%      0.0%
 flops     4 x    21 x     4             21772800     100.0%      0.0%      0.0%
 flops     4 x    20 x     4             41472000     100.0%      0.0%      0.0%
 flops    10 x    10 x    52             48484800     100.0%      0.0%      0.0%
 flops    10 x    10 x    53             49417200     100.0%      0.0%      0.0%
 flops    10 x     4 x    52             94348800     100.0%      0.0%      0.0%
 flops     4 x    10 x    52             94348800     100.0%      0.0%      0.0%
 flops    10 x     4 x    53             96163200     100.0%      0.0%      0.0%
 flops     4 x    10 x    53             96163200     100.0%      0.0%      0.0%
 flops     4 x     4 x    52            189745920     100.0%      0.0%      0.0%
 flops     4 x     4 x    53            193394880     100.0%      0.0%      0.0%
 flops    10 x    10 x    32            477388800     100.0%      0.0%      0.0%
 flops    10 x    32 x    10            572313600     100.0%      0.0%      0.0%
 flops    10 x    10 x    64            835430400     100.0%      0.0%      0.0%
 flops    10 x     4 x    32            928972800     100.0%      0.0%      0.0%
 flops     4 x    10 x    32            928972800     100.0%      0.0%      0.0%
 flops    10 x    32 x     4           1144627200     100.0%      0.0%      0.0%
 flops     4 x    32 x    10           1144627200     100.0%      0.0%      0.0%
 flops    10 x     4 x    64           1625702400     100.0%      0.0%      0.0%
 flops     4 x    10 x    64           1625702400     100.0%      0.0%      0.0%
 flops     4 x     4 x    32           1868267520     100.0%      0.0%      0.0%
 flops     4 x    32 x     4           2289254400     100.0%      0.0%      0.0%
 flops     4 x     4 x    64           3269468160     100.0%      0.0%      0.0%
 flops inhomo. stacks                           0       0.0%      0.0%      0.0%
 flops total                        17.715095E+09     100.0%      0.0%      0.0%
 flops max/rank                    177.224048E+06     100.0%      0.0%      0.0%
 matmuls inhomo. stacks                         0       0.0%      0.0%      0.0%
 matmuls total                            8608896     100.0%      0.0%      0.0%
 number of processed stacks                139904     100.0%      0.0%      0.0%
 average stack size                                    61.5       0.0       0.0
 marketing flops                    29.999806E+09
 -------------------------------------------------------------------------------
 # multiplications                             17
 max memory usage/rank             232.271872E+06
 # max total images/rank                        2
 # max 3D layers                                1
 # MPI messages exchanged                   97920
 MPI messages size (bytes):
  total size                         3.459154E+09
  min size                          16.384000E+03
  max size                          76.160000E+03
  average size                      35.326324E+03
 MPI breakdown and total messages size (bytes):
             size <=      128                   0                        0
       128 < size <=     8192                   0                        0
      8192 < size <=    32768               37980                720910080
     32768 < size <=   131072               59940               2738243520
    131072 < size <=  4194304                   0                        0
   4194304 < size <= 16777216                   0                        0
  16777216 < size                               0                        0
 -------------------------------------------------------------------------------

 *** WARNING in dbcsr/mm/dbcsr_mm.F:268 :: Using a non-square number of ***
 *** MPI ranks might lead to poor performance.                          ***
 *** Used ranks: 128                                                    ***
 *** Suggested: 121 256                                                 ***

 -------------------------------------------------------------------------------

 MEMORY| Estimated peak process memory [MiB]                                 282

 -------------------------------------------------------------------------------
 ----                             MULTIGRID INFO                            ----
 -------------------------------------------------------------------------------
 count for grid        1:        1682524          cutoff [a.u.]          325.00
 count for grid        2:        1129270          cutoff [a.u.]          108.33
 count for grid        3:         901716          cutoff [a.u.]           36.11
 count for grid        4:        1100028          cutoff [a.u.]           12.04
 count for grid        5:         519928          cutoff [a.u.]            4.01
 count for grid        6:              0          cutoff [a.u.]            1.34
 count for grid        7:              0          cutoff [a.u.]            0.45
 count for grid        8:              0          cutoff [a.u.]            0.15
 count for grid        9:              0          cutoff [a.u.]            0.05
 count for grid       10:              0          cutoff [a.u.]            0.02
 total gridlevel count  :        5333466

 -------------------------------------------------------------------------------
 -                                                                             -
 -                         MESSAGE PASSING PERFORMANCE                         -
 -                                                                             -
 -------------------------------------------------------------------------------

 ROUTINE             CALLS      AVE VOLUME [Bytes]
 MP_Group               32
 MP_Bcast             3001                 200393.
 MP_Allreduce         9158                  45053.
 MP_Sync              1656
 MP_Alltoall           893                5758247.
 MP_ISendRecv        26416                   3833.
 MP_Wait             31046
 MP_comm_split        1333
 MP_ISend             4660                 127574.
 MP_IRecv             4740                 125218.
 MP_Recv                46                 276480.
 MP_Memory            1098
 -------------------------------------------------------------------------------


 -------------------------------------------------------------------------------
 -                                                                             -
 -                           R E F E R E N C E S                               -
 -                                                                             -
 -------------------------------------------------------------------------------
 
 CP2K version 6.1, the CP2K developers group (2018).
 CP2K is freely available from https://www.cp2k.org/ .

 Schuett, Ole; Messmer, Peter; Hutter, Juerg; VandeVondele, Joost. 
 Electronic Structure Calculations on Graphics Processing Units, John Wiley & Sons, Ltd, 173-190 (2016). 
 GPU-Accelerated Sparse Matrix-Matrix Multiplication for Linear Scaling Density Functional Theory.
 http://dx.doi.org/10.1002/9781118670712.ch8


 Borstnik, U; VandeVondele, J; Weber, V; Hutter, J. 
 PARALLEL COMPUTING, 40 (5-6), 47-58 (2014). 
 Sparse matrix multiplication: The distributed block-compressed sparse
 row library.
 http://dx.doi.org/10.1016/j.parco.2014.03.012


 Hutter, J; Iannuzzi, M; Schiffmann, F; VandeVondele, J. 
 WILEY INTERDISCIPLINARY REVIEWS-COMPUTATIONAL MOLECULAR SCIENCE, 4 (1), 15-25 (2014). 
 CP2K: atomistic simulations of condensed matter systems.
 http://dx.doi.org/10.1002/wcms.1159


 VandeVondele, J; Hutter, J. 
 JOURNAL OF CHEMICAL PHYSICS, 127 (11), 114105 (2007). 
 Gaussian basis sets for accurate calculations on molecular systems in
 gas and condensed phases.
 http://dx.doi.org/10.1063/1.2770708


 Krack, M. 
 THEORETICAL CHEMISTRY ACCOUNTS, 114 (1-3), 145-152 (2005). 
 Pseudopotentials for H to Kr optimized for gradient-corrected
 exchange-correlation functionals.
 http://dx.doi.org/10.1007/s00214-005-0655-y


 VandeVondele, J; Krack, M; Mohamed, F; Parrinello, M; Chassaing, T;
 Hutter, J. COMPUTER PHYSICS COMMUNICATIONS, 167 (2), 103-128 (2005). 
 QUICKSTEP: Fast and accurate density functional calculations using a
 mixed Gaussian and plane waves approach.
 http://dx.doi.org/10.1016/j.cpc.2004.12.014


 Frigo, M; Johnson, SG. 
 PROCEEDINGS OF THE IEEE, 93 (2), 216-231 (2005). 
 The design and implementation of FFTW3.
 http://dx.doi.org/10.1109/JPROC.2004.840301


 Hartwigsen, C; Goedecker, S; Hutter, J. 
 PHYSICAL REVIEW B, 58 (7), 3641-3662 (1998). 
 Relativistic separable dual-space Gaussian pseudopotentials from H to Rn.
 http://dx.doi.org/10.1103/PhysRevB.58.3641


 Dudarev, SL; Botton, GA; Savrasov, SY; Humphreys, CJ; Sutton, AP. 
 PHYSICAL REVIEW B, 57 (3), 1505-1509 (1998). 
 Electron-energy-loss spectra and the structural stability of
 nickel oxide: An LSDA+U study.
 http://dx.doi.org/10.1103/PhysRevB.57.1505


 Lippert, G; Hutter, J; Parrinello, M. 
 MOLECULAR PHYSICS, 92 (3), 477-487 (1997). 
 A hybrid Gaussian and plane wave density functional scheme.
 http://dx.doi.org/10.1080/002689797170220


 Dudarev, SL; Manh, DN; Sutton, AP. 
 PHILOSOPHICAL MAGAZINE B, 75 (5), 613-628 (1997). 
 Effect of Mott-Hubbard correlations on the electronic
 structure and structural stability of uranium dioxide.
 http://dx.doi.org/10.1080/13642819708202343


 Perdew, JP; Burke, K; Ernzerhof, M. 
 PHYSICAL REVIEW LETTERS, 77 (18), 3865-3868 (1996). 
 Generalized gradient approximation made simple.
 http://dx.doi.org/10.1103/PhysRevLett.77.3865


 Goedecker, S; Teter, M; Hutter, J. 
 PHYSICAL REVIEW B, 54 (3), 1703-1710 (1996). 
 Separable dual-space Gaussian pseudopotentials.
 http://dx.doi.org/10.1103/PhysRevB.54.1703


 -------------------------------------------------------------------------------
 -                                                                             -
 -                                T I M I N G                                  -
 -                                                                             -
 -------------------------------------------------------------------------------
 SUBROUTINE                       CALLS  ASD         SELF TIME        TOTAL TIME
                                MAXIMUM       AVERAGE  MAXIMUM  AVERAGE  MAXIMUM
 CP2K                                 1  1.0    0.017    0.022  103.791  103.792
 qs_energies                          1  2.0    0.000    0.000  103.592  103.596
 qs_energies_properties               1  3.0    0.000    0.000   62.331   62.334
 maximal_orbital_analysis             1  4.0    3.769    3.874   62.331   62.334
 moax_frg                             4  5.0   47.878   49.513   57.141   57.145
 scf_env_do_scf                       1  3.0    0.000    0.000   35.949   36.040
 scf_env_do_scf_inner_loop            6  4.0    0.001    0.001   35.949   36.039
 qs_rho_update_rho                    7  5.0    0.000    0.000   18.596   18.597
 calculate_rho_elec                  14  6.0   16.185   16.621   18.596   18.597
 qs_ks_update_qs_env                  6  5.0    0.000    0.000   16.946   17.332
 rebuild_ks_matrix                    6  6.0    0.000    0.000   16.943   17.329
 qs_ks_build_kohn_sham_matrix         6  7.0    0.612    0.998   16.943   17.329
 sum_up_and_integrate                 6  8.0    0.004    0.004   14.578   14.588
 integrate_v_rspace                  12  9.0   12.559   12.907   14.575   14.585
 cp_fm_syevd                       1333  6.0    0.003    0.005    7.760    7.831
 cp_fm_redistribute_end            1333  7.0    5.441    6.212    5.687    6.535
 cp_fm_syevd_base                  1333  7.1    0.747    5.216    0.747    5.216
 cp_gemm                            127  6.5    0.000    0.000    2.880    4.347
 cp_gemm_fm_gemm                    127  7.5    0.000    0.000    2.880    4.347
 cp_fm_gemm                         127  8.5    2.879    4.347    2.879    4.347
 rs_pw_transfer                     264  9.3    0.002    0.002    2.822    3.454
 qs_scf_new_mos                       6  5.0    0.000    0.000    2.738    3.294
 init_scf_run                         1  3.0    0.000    0.000    3.239    3.239
 scf_env_initial_rho_setup            1  4.0    0.000    0.000    3.212    3.213
 density_rs2pw                       14  7.0    0.001    0.001    2.161    2.470
 pw_transfer                        387  9.4    0.018    0.021    2.140    2.267
 rs_pw_transfer_RS2PW_330            16  8.8    0.348    0.381    1.661    2.260
 eigensolver                         12  6.0    0.001    0.001    2.257    2.260
 fft_wrap_pw1pw2                    375 10.4    0.002    0.003    2.116    2.239
 mp_waitany                        1508 11.2    1.573    2.223    1.573    2.223
 -------------------------------------------------------------------------------

 The number of warnings for this run is : 1
 
 -------------------------------------------------------------------------------
  **** **** ******  **  PROGRAM ENDED AT                 2020-04-22 07:55:40.387
 ***** ** ***  *** **   PROGRAM RAN ON            cpn-u22-14.cbls.ccr.buffalo.ed
 **    ****   ******    PROGRAM RAN BY                                  pavankum
 ***** **    ** ** **   PROGRAM PROCESS ID                                169300
  **** **  *******  **  PROGRAM STOPPED IN /projects/academic/mdupuis2/pavan/MOA
                                           /BVO/gopt_state0
