 DBCSR| Multiplication driver                                               BLAS
 DBCSR| Multrec recursion limit                                              512
 DBCSR| Multiplication stack size                                           1000
 DBCSR| Maximum elements for images                                    UNLIMITED
 DBCSR| Multiplicative factor virtual images                                   1
 DBCSR| Multiplication size stacks                                             3
 DBCSR| Number of 3D layers                                               SINGLE
 DBCSR| Use MPI memory allocation                                              T
 DBCSR| Use RMA algorithm                                                      F
 DBCSR| Use Communication thread                                               T
 DBCSR| Communication thread load                                             87


  **** **** ******  **  PROGRAM STARTED AT               2019-08-02 13:23:14.129
 ***** ** ***  *** **   PROGRAM STARTED ON        cpn-p28-06.cbls.ccr.buffalo.ed
 **    ****   ******    PROGRAM STARTED BY                              pavankum
 ***** **    ** ** **   PROGRAM PROCESS ID                                 21744
  **** **  *******  **  PROGRAM STARTED IN /projects/academic/mdupuis2/pavan/VAB
                                           _calculation/results_for_paper/7.TiO2
                                           _pbe_plus_U10/point_0.1

 CP2K| version string:                                          CP2K version 6.1
 CP2K| source code revision number:                                    svn:18464
 CP2K| cp2kflags: libint fftw3 libxc parallel mpi3 scalapack libderiv_max_am1=5 
 CP2K|            libint_max_am=6
 CP2K| is freely available from                            https://www.cp2k.org/
 CP2K| Program compiled at                          Fri Nov 30 14:17:09 EST 2018
 CP2K| Program compiled on                       srv-p22-12.cbls.ccr.buffalo.edu
 CP2K| Program compiled for                                                local
 CP2K| Data directory path    /projects/academic/mdupuis2/pavan/cp2k/cp2k-6.1/da
 CP2K| Input file name                                                 input.inp

 GLOBAL| Force Environment number                                              1
 GLOBAL| Basis set file name            /projects/academic/mdupuis2/pavan/BASIS_
 GLOBAL| Potential file name            /projects/academic/mdupuis2/pavan/POTENT
 GLOBAL| MM Potential file name                                     MM_POTENTIAL
 GLOBAL| Coordinate file name                           ./intermediate_point.xyz
 GLOBAL| Method name                                                        CP2K
 GLOBAL| Project name                                                    p_tio2_
 GLOBAL| Preferred FFT library                                             FFTW3
 GLOBAL| Preferred diagonalization lib.                                       SL
 GLOBAL| Run type                                                         ENERGY
 GLOBAL| All-to-all communication in single precision                          F
 GLOBAL| FFTs using library dependent lengths                                  T
 GLOBAL| Global print level                                               MEDIUM
 GLOBAL| Total number of message passing processes                            40
 GLOBAL| Number of threads for this process                                    1
 GLOBAL| This output is from process                                           0
 GLOBAL| CPU model name :  Intel(R) Xeon(R) CPU E5-2650 v4 @ 2.20GHz

 MEMORY| system memory details [Kb]
 MEMORY|                        rank 0           min           max       average
 MEMORY| MemTotal            131746140     131740876     131746140     131743508
 MEMORY| MemFree             119091792     119091792     124780552     121936172
 MEMORY| Buffers                496672        495952        496672        496312
 MEMORY| Cached                7719720       2223028       7719720       4971374
 MEMORY| Slab                   351044        351044        413268        382156
 MEMORY| SReclaimable           235952        233888        235952        234920
 MEMORY| MemLikelyFree       127544136     127544136     127733420     127638778


 *** Fundamental physical constants (SI units) ***

 *** Literature: B. J. Mohr and B. N. Taylor,
 ***             CODATA recommended values of the fundamental physical
 ***             constants: 2006, Web Version 5.1
 ***             http://physics.nist.gov/constants

 Speed of light in vacuum [m/s]                             2.99792458000000E+08
 Magnetic constant or permeability of vacuum [N/A**2]       1.25663706143592E-06
 Electric constant or permittivity of vacuum [F/m]          8.85418781762039E-12
 Planck constant (h) [J*s]                                  6.62606896000000E-34
 Planck constant (h-bar) [J*s]                              1.05457162825177E-34
 Elementary charge [C]                                      1.60217648700000E-19
 Electron mass [kg]                                         9.10938215000000E-31
 Electron g factor [ ]                                     -2.00231930436220E+00
 Proton mass [kg]                                           1.67262163700000E-27
 Fine-structure constant                                    7.29735253760000E-03
 Rydberg constant [1/m]                                     1.09737315685270E+07
 Avogadro constant [1/mol]                                  6.02214179000000E+23
 Boltzmann constant [J/K]                                   1.38065040000000E-23
 Atomic mass unit [kg]                                      1.66053878200000E-27
 Bohr radius [m]                                            5.29177208590000E-11

 *** Conversion factors ***

 [u] -> [a.u.]                                              1.82288848426455E+03
 [Angstrom] -> [Bohr] = [a.u.]                              1.88972613288564E+00
 [a.u.] = [Bohr] -> [Angstrom]                              5.29177208590000E-01
 [a.u.] -> [s]                                              2.41888432650478E-17
 [a.u.] -> [fs]                                             2.41888432650478E-02
 [a.u.] -> [J]                                              4.35974393937059E-18
 [a.u.] -> [N]                                              8.23872205491840E-08
 [a.u.] -> [K]                                              3.15774647902944E+05
 [a.u.] -> [kJ/mol]                                         2.62549961709828E+03
 [a.u.] -> [kcal/mol]                                       6.27509468713739E+02
 [a.u.] -> [Pa]                                             2.94210107994716E+13
 [a.u.] -> [bar]                                            2.94210107994716E+08
 [a.u.] -> [atm]                                            2.90362800883016E+08
 [a.u.] -> [eV]                                             2.72113838565563E+01
 [a.u.] -> [Hz]                                             6.57968392072181E+15
 [a.u.] -> [1/cm] (wave numbers)                            2.19474631370540E+05
 [a.u./Bohr**2] -> [1/cm]                                   5.14048714338585E+03
 

 CELL_TOP| Volume [angstrom^3]:                                         2867.349
 CELL_TOP| Vector a [angstrom    13.869     0.000     0.000    |a| =      13.869
 CELL_TOP| Vector b [angstrom     0.000    13.869     0.000    |b| =      13.869
 CELL_TOP| Vector c [angstrom     0.000     0.000    14.907    |c| =      14.907
 CELL_TOP| Angle (b,c), alpha [degree]:                                   90.000
 CELL_TOP| Angle (a,c), beta  [degree]:                                   90.000
 CELL_TOP| Angle (a,b), gamma [degree]:                                   90.000
 CELL_TOP| Numerically orthorhombic:                                         YES

 CELL| Volume [angstrom^3]:                                             2867.349
 CELL| Vector a [angstrom]:      13.869     0.000     0.000    |a| =      13.869
 CELL| Vector b [angstrom]:       0.000    13.869     0.000    |b| =      13.869
 CELL| Vector c [angstrom]:       0.000     0.000    14.907    |c| =      14.907
 CELL| Angle (b,c), alpha [degree]:                                       90.000
 CELL| Angle (a,c), beta  [degree]:                                       90.000
 CELL| Angle (a,b), gamma [degree]:                                       90.000
 CELL| Numerically orthorhombic:                                             YES

 CELL_REF| Volume [angstrom^3]:                                         2867.349
 CELL_REF| Vector a [angstrom    13.869     0.000     0.000    |a| =      13.869
 CELL_REF| Vector b [angstrom     0.000    13.869     0.000    |b| =      13.869
 CELL_REF| Vector c [angstrom     0.000     0.000    14.907    |c| =      14.907
 CELL_REF| Angle (b,c), alpha [degree]:                                   90.000
 CELL_REF| Angle (a,c), beta  [degree]:                                   90.000
 CELL_REF| Angle (a,b), gamma [degree]:                                   90.000
 CELL_REF| Numerically orthorhombic:                                         YES

 *******************************************************************************
 *******************************************************************************
 **                                                                           **
 **     #####                         ##              ##                      **
 **    ##   ##            ##          ##              ##                      **
 **   ##     ##                       ##            ######                    **
 **   ##     ##  ##   ##  ##   #####  ##  ##   ####   ##    #####    #####    **
 **   ##     ##  ##   ##  ##  ##      ## ##   ##      ##   ##   ##  ##   ##   **
 **   ##  ## ##  ##   ##  ##  ##      ####     ###    ##   ######   ######    **
 **    ##  ###   ##   ##  ##  ##      ## ##      ##   ##   ##       ##        **
 **     #######   #####   ##   #####  ##  ##  ####    ##    #####   ##        **
 **           ##                                                    ##        **
 **                                                                           **
 **                                                ... make the atoms dance   **
 **                                                                           **
 **            Copyright (C) by CP2K developers group (2000 - 2018)           **
 **                                                                           **
 *******************************************************************************

 DFT| Spin unrestricted (spin-polarized) Kohn-Sham calculation               UKS
 DFT| Multiplicity                                                             2
 DFT| Number of spin states                                                    2
 DFT| Charge                                                                  -1
 DFT| Self-interaction correction (SIC)                                       NO
 DFT| Cutoffs: density                                              1.000000E-10
 DFT|          gradient                                             1.000000E-10
 DFT|          tau                                                  1.000000E-10
 DFT|          cutoff_smoothing_range                               0.000000E+00
 DFT| XC density smoothing                                                  NONE
 DFT| XC derivatives                                                          PW

 DFT+U| Method                                                          MULLIKEN
 DFT+U| Check atomic kind information for details
 FUNCTIONAL| ROUTINE=NEW
 FUNCTIONAL| PBE:
 FUNCTIONAL| J.P.Perdew, K.Burke, M.Ernzerhof, Phys. Rev. Letter, vol. 77, n 18,
 FUNCTIONAL|  pp. 3865-3868, (1996){spin polarized}                             

 QS| Method:                                                                 GPW
 QS| Density plane wave grid type                        NON-SPHERICAL FULLSPACE
 QS| Number of grid levels:                                                   10
 QS| Density cutoff [a.u.]:                                                325.0
 QS| Multi grid cutoff [a.u.]: 1) grid level                               325.0
 QS|                           2) grid level                               108.3
 QS|                           3) grid level                                36.1
 QS|                           4) grid level                                12.0
 QS|                           5) grid level                                 4.0
 QS|                           6) grid level                                 1.3
 QS|                           7) grid level                                 0.4
 QS|                           8) grid level                                 0.1
 QS|                           9) grid level                                 0.0
 QS|                          10) grid level                                 0.0
 QS| Grid level progression factor:                                          3.0
 QS| Relative density cutoff [a.u.]:                                        30.0
 QS| Consistent realspace mapping and integration 
 QS| Interaction thresholds: eps_pgf_orb:                                1.0E-12
 QS|                         eps_filter_matrix:                          0.0E+00
 QS|                         eps_core_charge:                            1.0E-14
 QS|                         eps_rho_gspace:                             1.0E-12
 QS|                         eps_rho_rspace:                             1.0E-12
 QS|                         eps_gvg_rspace:                             1.0E-06
 QS|                         eps_ppl:                                    1.0E-02
 QS|                         eps_ppnl:                                   1.0E-08


 ATOMIC KIND INFORMATION

  1. Atomic kind: Ti                                    Number of atoms:      90

     Orbital Basis Set                                         SZV-MOLOPT-SR-GTH

       Number of orbital shell sets:                                           1
       Number of orbital shells:                                               4
       Number of primitive Cartesian functions:                                6
       Number of Cartesian basis functions:                                   11
       Number of spherical basis functions:                                   10
       Norm type:                                                              2

       Normalised Cartesian orbitals:

                        Set   Shell   Orbital            Exponent    Coefficient

                          1       1    2s                7.884570       0.015554
                                                         3.894698       0.963603
                                                         1.513589      -0.631435
                                                         0.596768      -0.343022
                                                         0.222222      -0.006534
                                                         0.077078       0.007652

                          1       2    3s                7.884570      -0.009340
                                                         3.894698       0.212624
                                                         1.513589      -0.258368
                                                         0.596768      -0.226206
                                                         0.222222       0.039438
                                                         0.077078       0.107179

                          1       3    3px               7.884570      -2.034794
                                                         3.894698       0.782008
                                                         1.513589       1.253903
                                                         0.596768       0.347823
                                                         0.222222       0.016778
                                                         0.077078      -0.000433
                          1       3    3py               7.884570      -2.034794
                                                         3.894698       0.782008
                                                         1.513589       1.253903
                                                         0.596768       0.347823
                                                         0.222222       0.016778
                                                         0.077078      -0.000433
                          1       3    3pz               7.884570      -2.034794
                                                         3.894698       0.782008
                                                         1.513589       1.253903
                                                         0.596768       0.347823
                                                         0.222222       0.016778
                                                         0.077078      -0.000433

                          1       4    4dx2              7.884570       3.047350
                                                         3.894698       3.289529
                                                         1.513589       1.060616
                                                         0.596768       0.249930
                                                         0.222222       0.038806
                                                         0.077078       0.002319
                          1       4    4dxy              7.884570       5.278165
                                                         3.894698       5.697631
                                                         1.513589       1.837041
                                                         0.596768       0.432892
                                                         0.222222       0.067214
                                                         0.077078       0.004017
                          1       4    4dxz              7.884570       5.278165
                                                         3.894698       5.697631
                                                         1.513589       1.837041
                                                         0.596768       0.432892
                                                         0.222222       0.067214
                                                         0.077078       0.004017
                          1       4    4dy2              7.884570       3.047350
                                                         3.894698       3.289529
                                                         1.513589       1.060616
                                                         0.596768       0.249930
                                                         0.222222       0.038806
                                                         0.077078       0.002319
                          1       4    4dyz              7.884570       5.278165
                                                         3.894698       5.697631
                                                         1.513589       1.837041
                                                         0.596768       0.432892
                                                         0.222222       0.067214
                                                         0.077078       0.004017
                          1       4    4dz2              7.884570       3.047350
                                                         3.894698       3.289529
                                                         1.513589       1.060616
                                                         0.596768       0.249930
                                                         0.222222       0.038806
                                                         0.077078       0.002319

     GTH Potential information for                                   GTH-PBE-q12

       Description:                       Goedecker-Teter-Hutter pseudopotential
                                           Goedecker et al., PRB 54, 1703 (1996)
                                          Hartwigsen et al., PRB 58, 3641 (1998)
                                                      Krack, TCA 114, 145 (2005)

       Gaussian exponent of the core charge distribution:               3.462604
       Electronic configuration (s p d ...):                           4   6   2

       Parameters of the local part of the GTH pseudopotential:

                          rloc        C1          C2          C3          C4
                        0.380000    8.711442   -0.700287

       Parameters of the non-local part of the GTH pseudopotential:

                   l      r(l)      h(i,j,l)

                   0    0.337771    2.575264    3.692971
                                    3.692971   -4.767605
                   1    0.242531   -4.630541    8.870875
                                    8.870875  -10.496161
                   2    0.243317   -9.406653

     A DFT+U correction is applied to atoms of this atomic kind:
       Angular quantum momentum number L:                                      2
       U(eff) = (U - J) value in [eV]:                                     9.987

  2. Atomic kind: O                                     Number of atoms:     180

     Orbital Basis Set                                            SZV-MOLOPT-GTH

       Number of orbital shell sets:                                           1
       Number of orbital shells:                                               2
       Number of primitive Cartesian functions:                                7
       Number of Cartesian basis functions:                                    4
       Number of spherical basis functions:                                    4
       Norm type:                                                              2

       Normalised Cartesian orbitals:

                        Set   Shell   Orbital            Exponent    Coefficient

                          1       1    2s               12.015955      -0.284499
                                                         5.108150      -0.322498
                                                         2.048398       0.148191
                                                         0.832382       0.295475
                                                         0.352316       0.150829
                                                         0.142977       0.015788
                                                         0.046761      -0.000019

                          1       2    3px              12.015955       1.192141
                                                         5.108150       1.354170
                                                         2.048398       0.897267
                                                         0.832382       0.408839
                                                         0.352316       0.116648
                                                         0.142977       0.022184
                                                         0.046761       0.000308
                          1       2    3py              12.015955       1.192141
                                                         5.108150       1.354170
                                                         2.048398       0.897267
                                                         0.832382       0.408839
                                                         0.352316       0.116648
                                                         0.142977       0.022184
                                                         0.046761       0.000308
                          1       2    3pz              12.015955       1.192141
                                                         5.108150       1.354170
                                                         2.048398       0.897267
                                                         0.832382       0.408839
                                                         0.352316       0.116648
                                                         0.142977       0.022184
                                                         0.046761       0.000308

     GTH Potential information for                                    GTH-PBE-q6

       Description:                       Goedecker-Teter-Hutter pseudopotential
                                           Goedecker et al., PRB 54, 1703 (1996)
                                          Hartwigsen et al., PRB 58, 3641 (1998)
                                                      Krack, TCA 114, 145 (2005)

       Gaussian exponent of the core charge distribution:               8.360253
       Electronic configuration (s p d ...):                               2   4

       Parameters of the local part of the GTH pseudopotential:

                          rloc        C1          C2          C3          C4
                        0.244554  -16.667215    2.487311

       Parameters of the non-local part of the GTH pseudopotential:

                   l      r(l)      h(i,j,l)

                   0    0.220956   18.337458
                   1    0.211332


 MOLECULE KIND INFORMATION


 All atoms are their own molecule, skipping detailed information


 TOTAL NUMBERS AND MAXIMUM NUMBERS

  Total number of            - Atomic kinds:                                   2
                             - Atoms:                                        270
                             - Shell sets:                                   270
                             - Shells:                                       720
                             - Primitive Cartesian functions:               1800
                             - Cartesian basis functions:                   1710
                             - Spherical basis functions:                   1620

  Maximum angular momentum of- Orbital basis functions:                        2
                             - Local part of the GTH pseudopotential:          2
                             - Non-local part of the GTH pseudopotential:      3


 MODULE QUICKSTEP:  ATOMIC COORDINATES IN angstrom

  Atom  Kind  Element       X           Y           Z          Z(eff)       Mass

       1     1 Ti  22    0.000773    0.000159    0.000378     12.00      47.8670
       2     1 Ti  22    2.313577    2.309362    1.488115     12.00      47.8670
       3     1 Ti  22    4.632749    0.009748    0.000209     12.00      47.8670
       4     1 Ti  22    6.934581    2.311576    1.499037     12.00      47.8670
       5     1 Ti  22    9.243547    0.002202   -0.000011     12.00      47.8670
       6     1 Ti  22   11.555435    2.313599    1.487996     12.00      47.8670
       7     1 Ti  22   -0.000537    4.623010    0.000372     12.00      47.8670
       8     1 Ti  22    2.312382    6.933825    1.487568     12.00      47.8670
       9     1 Ti  22    4.625204    4.620544   -0.000011     12.00      47.8670
      10     1 Ti  22    6.936601    6.932432    1.487995     12.00      47.8670
      11     1 Ti  22    9.236406    4.613404    0.000221     12.00      47.8670
      12     1 Ti  22   11.554602    6.931594    1.488769     12.00      47.8670
      13     1 Ti  22    0.000070    9.246068    0.000194     12.00      47.8670
      14     1 Ti  22    2.314524   11.560523    1.488778     12.00      47.8670
      15     1 Ti  22    4.623163    9.246774    0.000378     12.00      47.8670
      16     1 Ti  22    6.932366   11.559575    1.488115     12.00      47.8670
      17     1 Ti  22    9.246011    9.245461    0.000373     12.00      47.8670
      18     1 Ti  22   11.556828   11.558378    1.487569     12.00      47.8670
      19     1 Ti  22   -0.001105    0.001693    2.976127     12.00      47.8670
      20     1 Ti  22    2.315385    2.306991    4.466218     12.00      47.8670
      21     1 Ti  22    4.631099    0.008093    2.977602     12.00      47.8670
      22     1 Ti  22    6.934690    2.311678    4.499057     12.00      47.8670
      23     1 Ti  22    9.246833   -0.000305    2.979922     12.00      47.8670
      24     1 Ti  22   11.554704    2.317103    4.466090     12.00      47.8670
      25     1 Ti  22    0.001636    4.621831    2.976113     12.00      47.8670
      26     1 Ti  22    2.313758    6.932857    4.465751     12.00      47.8670
      27     1 Ti  22    4.622700    4.623827    2.979921     12.00      47.8670
      28     1 Ti  22    6.940106    6.931704    4.466088     12.00      47.8670
      29     1 Ti  22    9.238151    4.615148    2.977610     12.00      47.8670
      30     1 Ti  22   11.554446    6.931420    4.469209     12.00      47.8670
      31     1 Ti  22    0.000087    9.246083    2.977189     12.00      47.8670
      32     1 Ti  22    2.314764   11.560763    4.469202     12.00      47.8670
      33     1 Ti  22    4.624690    9.244889    2.976126     12.00      47.8670
      34     1 Ti  22    6.930010   11.561354    4.466216     12.00      47.8670
      35     1 Ti  22    9.244842    9.247630    2.976111     12.00      47.8670
      36     1 Ti  22   11.555870   11.559756    4.465750     12.00      47.8670
      37     1 Ti  22    0.000196    0.000155    5.957854     12.00      47.8670
      38     1 Ti  22    2.311822    2.312424    7.453472     12.00      47.8670
      39     1 Ti  22    4.637275    0.014234    5.958549     12.00      47.8670
      40     1 Ti  22    6.934927    2.311912    7.456119     12.00      47.8670
      41     1 Ti  22    9.243119    0.005429    5.964574     12.00      47.8670
      42     1 Ti  22   11.559628    2.313073    7.453466     12.00      47.8670
      43     1 Ti  22    0.001957    4.625027    5.957975     12.00      47.8670
      44     1 Ti  22    2.313482    6.935419    7.453472     12.00      47.8670
      45     1 Ti  22    4.628436    4.620109    5.964574     12.00      47.8670
      46     1 Ti  22    6.936063    6.936623    7.453466     12.00      47.8670
      47     1 Ti  22    9.232239    4.609240    5.958540     12.00      47.8670
      48     1 Ti  22   11.549693    6.926657    7.453817     12.00      47.8670
      49     1 Ti  22    0.000138    9.246130    5.959176     12.00      47.8670
      50     1 Ti  22    2.319607   11.565606    7.453817     12.00      47.8670
      51     1 Ti  22    4.623163    9.246204    5.957853     12.00      47.8670
      52     1 Ti  22    6.935484   11.557787    7.453472     12.00      47.8670
      53     1 Ti  22    9.248052    9.247921    5.957971     12.00      47.8670
      54     1 Ti  22   11.558411   11.559453    7.453472     12.00      47.8670
      55     1 Ti  22    0.000387   -0.000179    8.949177     12.00      47.8670
      56     1 Ti  22    2.314953    2.307366   10.441166     12.00      47.8670
      57     1 Ti  22    4.637779    0.014735    8.948403     12.00      47.8670
      58     1 Ti  22    6.934724    2.311710   10.408139     12.00      47.8670
      59     1 Ti  22    9.242631    0.006046    8.943304     12.00      47.8670
      60     1 Ti  22   11.555312    2.316915   10.441286     12.00      47.8670
      61     1 Ti  22    0.001905    4.625495    8.949071     12.00      47.8670
      62     1 Ti  22    2.313755    6.933066   10.441564     12.00      47.8670
      63     1 Ti  22    4.629053    4.619620    8.943305     12.00      47.8670
      64     1 Ti  22    6.939917    6.932312   10.441288     12.00      47.8670
      65     1 Ti  22    9.231763    4.608764    8.948411     12.00      47.8670
      66     1 Ti  22   11.554012    6.930984   10.438356     12.00      47.8670
      67     1 Ti  22    0.000139    9.246130    8.948103     12.00      47.8670
      68     1 Ti  22    2.315211   11.561211   10.438365     12.00      47.8670
      69     1 Ti  22    4.622830    9.246395    8.949178     12.00      47.8670
      70     1 Ti  22    6.930389   11.560921   10.441168     12.00      47.8670
      71     1 Ti  22    9.248522    9.247866    8.949074     12.00      47.8670
      72     1 Ti  22   11.556079   11.559751   10.441565     12.00      47.8670
      73     1 Ti  22   -0.001188    0.001626   11.931574     12.00      47.8670
      74     1 Ti  22    2.313778    2.309152   13.419623     12.00      47.8670
      75     1 Ti  22    4.631660    0.008651   11.929935     12.00      47.8670
      76     1 Ti  22    6.934597    2.311590   13.402586     12.00      47.8670
      77     1 Ti  22    9.246727    0.000001   11.926982     12.00      47.8670
      78     1 Ti  22   11.555308    2.313891   13.419760     12.00      47.8670
      79     1 Ti  22    0.001881    4.622067   11.931576     12.00      47.8670
      80     1 Ti  22    2.312528    6.933736   13.420144     12.00      47.8670
      81     1 Ti  22    4.623007    4.623720   11.926982     12.00      47.8670
      82     1 Ti  22    6.936894    6.932304   13.419761     12.00      47.8670
      83     1 Ti  22    9.237626    4.614623   11.929942     12.00      47.8670
      84     1 Ti  22   11.554457    6.931448   13.418544     12.00      47.8670
      85     1 Ti  22    0.000090    9.246086   11.930287     12.00      47.8670
      86     1 Ti  22    2.314673   11.560672   13.418532     12.00      47.8670
      87     1 Ti  22    4.624623    9.244807   11.931575     12.00      47.8670
      88     1 Ti  22    6.932157   11.559774   13.419623     12.00      47.8670
      89     1 Ti  22    9.245080    9.247872   11.931579     12.00      47.8670
      90     1 Ti  22   11.556740   11.558525   13.420144     12.00      47.8670
      91     2 O    8    1.408546    1.409767   -0.000022      6.00      15.9994
      92     2 O    8    3.212839    3.213171   -0.000111      6.00      15.9994
      93     2 O    8    0.902563    3.720964    1.486650      6.00      15.9994
      94     2 O    8    3.719061    0.902511    1.485807      6.00      15.9994
      95     2 O    8    6.030692    1.407691    0.000793      6.00      15.9994
      96     2 O    8    7.838395    3.215393    0.000796      6.00      15.9994
      97     2 O    8    5.522867    3.723193    1.486170      6.00      15.9994
      98     2 O    8    8.346194    0.899866    1.486169      6.00      15.9994
      99     2 O    8   10.656217    1.409888   -0.000115      6.00      15.9994
     100     2 O    8   12.460531    3.213283   -0.000019      6.00      15.9994
     101     2 O    8   10.150018    3.720567    1.485813      6.00      15.9994
     102     2 O    8   12.966529    0.902114    1.486629      6.00      15.9994
     103     2 O    8    1.409546    6.032307   -0.000095      6.00      15.9994
     104     2 O    8    3.213753    7.836532   -0.000092      6.00      15.9994
     105     2 O    8    0.902711    8.343333    1.486605      6.00      15.9994
     106     2 O    8    3.719805    5.526272    1.486409      6.00      15.9994
     107     2 O    8    6.032888    6.033216   -0.000115      6.00      15.9994
     108     2 O    8    7.836284    7.837530   -0.000019      6.00      15.9994
     109     2 O    8    5.525114    8.343528    1.486629      6.00      15.9994
     110     2 O    8    8.343567    5.527017    1.485813      6.00      15.9994
     111     2 O    8   10.656000    6.032999    0.000029      6.00      15.9994
     112     2 O    8   12.460028    7.837027   -0.000094      6.00      15.9994
     113     2 O    8   10.146700    8.345203    1.486671      6.00      15.9994
     114     2 O    8   12.968205    5.523699    1.486671      6.00      15.9994
     115     2 O    8    1.409019   10.655019   -0.000095      6.00      15.9994
     116     2 O    8    3.213064   12.459063    0.000026      6.00      15.9994
     117     2 O    8    0.900878   12.968378    1.486657      6.00      15.9994
     118     2 O    8    3.722378   10.146877    1.486657      6.00      15.9994
     119     2 O    8    6.032768   10.654544   -0.000022      6.00      15.9994
     120     2 O    8    7.836172   12.458837   -0.000111      6.00      15.9994
     121     2 O    8    5.525512   12.965059    1.485806      6.00      15.9994
     122     2 O    8    8.343965   10.148562    1.486651      6.00      15.9994
     123     2 O    8   10.655308   10.655545   -0.000095      6.00      15.9994
     124     2 O    8   12.459533   12.459753   -0.000092      6.00      15.9994
     125     2 O    8   10.149273   12.965804    1.486409      6.00      15.9994
     126     2 O    8   12.966334   10.148710    1.486605      6.00      15.9994
     127     2 O    8    1.407710    1.410227    2.973148      6.00      15.9994
     128     2 O    8    3.212215    3.213047    2.974169      6.00      15.9994
     129     2 O    8    0.901608    3.720670    4.464454      6.00      15.9994
     130     2 O    8    3.710773    0.898523    4.456503      6.00      15.9994
     131     2 O    8    6.029581    1.406577    2.965019      6.00      15.9994
     132     2 O    8    7.839579    3.216578    2.965029      6.00      15.9994
     133     2 O    8    5.520712    3.725454    4.460448      6.00      15.9994
     134     2 O    8    8.348460    0.897710    4.460445      6.00      15.9994
     135     2 O    8   10.656908    1.410066    2.974258      6.00      15.9994
     136     2 O    8   12.461479    3.212917    2.973109      6.00      15.9994
     137     2 O    8   10.158722    3.724783    4.456447      6.00      15.9994
     138     2 O    8   12.967758    0.902719    4.464310      6.00      15.9994
     139     2 O    8    1.409520    6.032270    2.974198      6.00      15.9994
     140     2 O    8    3.213792    7.836526    2.974247      6.00      15.9994
     141     2 O    8    0.902508    8.343475    4.463257      6.00      15.9994
     142     2 O    8    3.718368    5.527741    4.461736      6.00      15.9994
     143     2 O    8    6.033066    6.033907    2.974260      6.00      15.9994
     144     2 O    8    7.835918    7.838478    2.973109      6.00      15.9994
     145     2 O    8    5.525721    8.344758    4.464311      6.00      15.9994
     146     2 O    8    8.347784    5.535720    4.456448      6.00      15.9994
     147     2 O    8   10.657051    6.034049    2.972664      6.00      15.9994
     148     2 O    8   12.460184    7.837182    2.973893      6.00      15.9994
     149     2 O    8   10.146463    8.345529    4.463980      6.00      15.9994
     150     2 O    8   12.968532    5.523462    4.463980      6.00      15.9994
     151     2 O    8    1.408861   10.654860    2.973890      6.00      15.9994
     152     2 O    8    3.212065   12.458065    2.972627      6.00      15.9994
     153     2 O    8    0.900690   12.968731    4.463817      6.00      15.9994
     154     2 O    8    3.722734   10.146690    4.463818      6.00      15.9994
     155     2 O    8    6.033228   10.653706    2.973148      6.00      15.9994
     156     2 O    8    7.836048   12.458212    2.974172      6.00      15.9994
     157     2 O    8    5.521522   12.956759    4.456502      6.00      15.9994
     158     2 O    8    8.343670   10.147604    4.464455      6.00      15.9994
     159     2 O    8   10.655272   10.655518    2.974197      6.00      15.9994
     160     2 O    8   12.459527   12.459791    2.974246      6.00      15.9994
     161     2 O    8   10.150745   12.964367    4.461735      6.00      15.9994
     162     2 O    8   12.966477   10.148507    4.463257      6.00      15.9994
     163     2 O    8    1.408757    1.409570    5.958891      6.00      15.9994
     164     2 O    8    3.212517    3.212590    5.953520      6.00      15.9994
     165     2 O    8    0.903870    3.721365    7.453140      6.00      15.9994
     166     2 O    8    3.722112    0.904916    7.451259      6.00      15.9994
     167     2 O    8    6.000748    1.377713    5.886835      6.00      15.9994
     168     2 O    8    7.868915    3.245904    5.886521      6.00      15.9994
     169     2 O    8    5.505786    3.741535    7.451762      6.00      15.9994
     170     2 O    8    8.364544    0.882774    7.451761      6.00      15.9994
     171     2 O    8   10.656810    1.410586    5.953072      6.00      15.9994
     172     2 O    8   12.460495    3.213592    5.959428      6.00      15.9994
     173     2 O    8   10.147184    3.718338    7.451240      6.00      15.9994
     174     2 O    8   12.965559    0.901832    7.453077      6.00      15.9994
     175     2 O    8    1.409001    6.032743    5.956057      6.00      15.9994
     176     2 O    8    3.213505    7.837205    5.955346      6.00      15.9994
     177     2 O    8    0.902693    8.343857    7.452903      6.00      15.9994
     178     2 O    8    3.713953    5.533010    7.452313      6.00      15.9994
     179     2 O    8    6.033588    6.033809    5.953070      6.00      15.9994
     180     2 O    8    7.836594    7.837493    5.959433      6.00      15.9994
     181     2 O    8    5.524829    8.342554    7.453077      6.00      15.9994
     182     2 O    8    8.341337    5.524180    7.451240      6.00      15.9994
     183     2 O    8   10.659942    6.036939    5.954623      6.00      15.9994
     184     2 O    8   12.461215    7.838210    5.954806      6.00      15.9994
     185     2 O    8   10.147097    8.345308    7.453018      6.00      15.9994
     186     2 O    8   12.968312    5.524092    7.453018      6.00      15.9994
     187     2 O    8    1.407953   10.653952    5.954574      6.00      15.9994
     188     2 O    8    3.209242   12.455240    5.954658      6.00      15.9994
     189     2 O    8    0.900900   12.968146    7.452965      6.00      15.9994
     190     2 O    8    3.722145   10.146901    7.452964      6.00      15.9994
     191     2 O    8    6.032576   10.654750    5.958902      6.00      15.9994
     192     2 O    8    7.835595   12.458512    5.953513      6.00      15.9994
     193     2 O    8    5.527925   12.968107    7.451258      6.00      15.9994
     194     2 O    8    8.344374   10.149869    7.453139      6.00      15.9994
     195     2 O    8   10.655747   10.654996    5.956053      6.00      15.9994
     196     2 O    8   12.460206   12.459504    5.955347      6.00      15.9994
     197     2 O    8   10.156010   12.959944    7.452312      6.00      15.9994
     198     2 O    8   12.966857   10.148689    7.452903      6.00      15.9994
     199     2 O    8    1.409049    1.409455    8.947269      6.00      15.9994
     200     2 O    8    3.212710    3.212495    8.951798      6.00      15.9994
     201     2 O    8    0.901726    3.720646   10.441994      6.00      15.9994
     202     2 O    8    3.711351    0.898771   10.449155      6.00      15.9994
     203     2 O    8    5.997471    1.374432    9.008560      6.00      15.9994
     204     2 O    8    7.872240    3.249228    9.008839      6.00      15.9994
     205     2 O    8    5.518971    3.727296   10.445176      6.00      15.9994
     206     2 O    8    8.350303    0.895968   10.445179      6.00      15.9994
     207     2 O    8   10.656639    1.410693    8.952121      6.00      15.9994
     208     2 O    8   12.460203    3.213703    8.946723      6.00      15.9994
     209     2 O    8   10.158163    3.724548   10.449189      6.00      15.9994
     210     2 O    8   12.967663    0.902764   10.442097      6.00      15.9994
     211     2 O    8    1.408964    6.032780    8.950162      6.00      15.9994
     212     2 O    8    3.213487    7.837267    8.950818      6.00      15.9994
     213     2 O    8    0.902480    8.343529   10.443190      6.00      15.9994
     214     2 O    8    3.717907    5.528280   10.444252      6.00      15.9994
     215     2 O    8    6.033694    6.033637    8.952123      6.00      15.9994
     216     2 O    8    7.836706    7.837201    8.946717      6.00      15.9994
     217     2 O    8    5.525766    8.344663   10.442096      6.00      15.9994
     218     2 O    8    8.347548    5.535161   10.449188      6.00      15.9994
     219     2 O    8   10.660110    6.037107    8.950577      6.00      15.9994
     220     2 O    8   12.461273    7.838268    8.951156      6.00      15.9994
     221     2 O    8   10.146442    8.345486   10.442510      6.00      15.9994
     222     2 O    8   12.968489    5.523441   10.442510      6.00      15.9994
     223     2 O    8    1.407903   10.653902    8.951330      6.00      15.9994
     224     2 O    8    3.209076   12.455074    8.950517      6.00      15.9994
     225     2 O    8    0.900742   12.968767   10.442634      6.00      15.9994
     226     2 O    8    3.722769   10.146743   10.442632      6.00      15.9994
     227     2 O    8    6.032460   10.655042    8.947257      6.00      15.9994
     228     2 O    8    7.835500   12.458704    8.951802      6.00      15.9994
     229     2 O    8    5.521770   12.957337   10.449155      6.00      15.9994
     230     2 O    8    8.343647   10.147721   10.441993      6.00      15.9994
     231     2 O    8   10.655784   10.654959    8.950165      6.00      15.9994
     232     2 O    8   12.460268   12.459486    8.950817      6.00      15.9994
     233     2 O    8   10.151284   12.963906   10.444252      6.00      15.9994
     234     2 O    8   12.966532   10.148479   10.443190      6.00      15.9994
     235     2 O    8    1.407834    1.410220   11.933244      6.00      15.9994
     236     2 O    8    3.212254    3.212977   11.932463      6.00      15.9994
     237     2 O    8    0.902496    3.720929   13.420080      6.00      15.9994
     238     2 O    8    3.718256    0.902118   13.421593      6.00      15.9994
     239     2 O    8    6.026379    1.403371   11.948322      6.00      15.9994
     240     2 O    8    7.842841    3.219839   11.948328      6.00      15.9994
     241     2 O    8    5.522685    3.723391   13.420739      6.00      15.9994
     242     2 O    8    8.346393    0.899684   13.420740      6.00      15.9994
     243     2 O    8   10.656893    1.410156   11.932376      6.00      15.9994
     244     2 O    8   12.461366    3.212932   11.933265      6.00      15.9994
     245     2 O    8   10.150846    3.720975   13.421589      6.00      15.9994
     246     2 O    8   12.966611    0.902162   13.420094      6.00      15.9994
     247     2 O    8    1.409497    6.032290   11.932478      6.00      15.9994
     248     2 O    8    3.213791    7.836573   11.932435      6.00      15.9994
     249     2 O    8    0.902704    8.343347   13.420198      6.00      15.9994
     250     2 O    8    3.719714    5.526381   13.420339      6.00      15.9994
     251     2 O    8    6.033157    6.033891   11.932374      6.00      15.9994
     252     2 O    8    7.835933    7.838364   11.933265      6.00      15.9994
     253     2 O    8    5.525162    8.343610   13.420093      6.00      15.9994
     254     2 O    8    8.343975    5.527845   13.421589      6.00      15.9994
     255     2 O    8   10.657387    6.034385   11.933977      6.00      15.9994
     256     2 O    8   12.460239    7.837236   11.932699      6.00      15.9994
     257     2 O    8   10.146682    8.345214   13.420095      6.00      15.9994
     258     2 O    8   12.968216    5.523681   13.420095      6.00      15.9994
     259     2 O    8    1.408815   10.654813   11.932693      6.00      15.9994
     260     2 O    8    3.211734   12.457734   11.934003      6.00      15.9994
     261     2 O    8    0.900873   12.968403   13.420101      6.00      15.9994
     262     2 O    8    3.722404   10.146873   13.420100      6.00      15.9994
     263     2 O    8    6.033222   10.653831   11.933244      6.00      15.9994
     264     2 O    8    7.835978   12.458251   11.932460      6.00      15.9994
     265     2 O    8    5.525119   12.964253   13.421594      6.00      15.9994
     266     2 O    8    8.343931   10.148495   13.420079      6.00      15.9994
     267     2 O    8   10.655291   10.655495   11.932479      6.00      15.9994
     268     2 O    8   12.459574   12.459790   11.932436      6.00      15.9994
     269     2 O    8   10.149382   12.965712   13.420339      6.00      15.9994
     270     2 O    8   12.966348   10.148703   13.420198      6.00      15.9994




 SCF PARAMETERS         Density guess:                                   RESTART
                        --------------------------------------------------------
                        max_scf:                                             500
                        max_scf_history:                                       0
                        max_diis:                                              4
                        --------------------------------------------------------
                        eps_scf:                                        1.00E-05
                        eps_scf_history:                                0.00E+00
                        eps_diis:                                       5.00E-01
                        eps_eigval:                                     1.00E-05
                        --------------------------------------------------------
                        level_shift [a.u.]:                                 0.00
                        --------------------------------------------------------
                        Mixing method:                            BROYDEN_MIXING
                                                charge density mixing in g-space
                        --------------------------------------------------------
                        Outer loop SCF in use 
                        No variables optimised in outer loop
                        eps_scf                                         1.00E-05
                        max_scf                                              500
                        No outer loop optimization
                        step_size                                       5.00E-01

 PW_GRID| Information for grid number                                          1
 PW_GRID| Grid distributed over                                    40 processors
 PW_GRID| Real space group dimensions                                    40    1
 PW_GRID| the grid is blocked:                                                NO
 PW_GRID| Cutoff [a.u.]                                                    325.0
 PW_GRID| spherical cutoff:                                                   NO
 PW_GRID|   Bounds   1           -108     107                Points:         216
 PW_GRID|   Bounds   2           -108     107                Points:         216
 PW_GRID|   Bounds   3           -115     115                Points:         231
 PW_GRID| Volume element (a.u.^3)  0.1795E-02     Volume (a.u.^3)     19349.8300
 PW_GRID| Grid span                                                    FULLSPACE
 PW_GRID|   Distribution                         Average         Max         Min
 PW_GRID|   G-Vectors                           269438.4      269568      269352
 PW_GRID|   G-Rays                                1247.4        1248        1247
 PW_GRID|   Real Space Points                   269438.4      299376      249480

 PW_GRID| Information for grid number                                          2
 PW_GRID| Grid distributed over                                    40 processors
 PW_GRID| Real space group dimensions                                    40    1
 PW_GRID| the grid is blocked:                                                NO
 PW_GRID| Cutoff [a.u.]                                                    108.3
 PW_GRID| spherical cutoff:                                                   NO
 PW_GRID|   Bounds   1            -63      62                Points:         126
 PW_GRID|   Bounds   2            -63      62                Points:         126
 PW_GRID|   Bounds   3            -66      65                Points:         132
 PW_GRID| Volume element (a.u.^3)  0.9233E-02     Volume (a.u.^3)     19349.8300
 PW_GRID| Grid span                                                    FULLSPACE
 PW_GRID|   Distribution                         Average         Max         Min
 PW_GRID|   G-Vectors                            52390.8       52794       52290
 PW_GRID|   G-Rays                                 415.8         419         415
 PW_GRID|   Real Space Points                    52390.8       66528       49896

 PW_GRID| Information for grid number                                          3
 PW_GRID| Grid distributed over                                    40 processors
 PW_GRID| Real space group dimensions                                    40    1
 PW_GRID| the grid is blocked:                                                NO
 PW_GRID| Cutoff [a.u.]                                                     36.1
 PW_GRID| spherical cutoff:                                                   NO
 PW_GRID|   Bounds   1            -36      35                Points:          72
 PW_GRID|   Bounds   2            -36      35                Points:          72
 PW_GRID|   Bounds   3            -38      38                Points:          77
 PW_GRID| Volume element (a.u.^3)  0.4848E-01     Volume (a.u.^3)     19349.8300
 PW_GRID| Grid span                                                    FULLSPACE
 PW_GRID|   Distribution                         Average         Max         Min
 PW_GRID|   G-Vectors                             9979.2       10008        9936
 PW_GRID|   G-Rays                                 138.6         139         138
 PW_GRID|   Real Space Points                     9979.2       11088        5544

 PW_GRID| Information for grid number                                          4
 PW_GRID| Grid distributed over                                    40 processors
 PW_GRID| Real space group dimensions                                    40    1
 PW_GRID| the grid is blocked:                                                NO
 PW_GRID| Cutoff [a.u.]                                                     12.0
 PW_GRID| spherical cutoff:                                                   NO
 PW_GRID|   Bounds   1            -21      20                Points:          42
 PW_GRID|   Bounds   2            -21      20                Points:          42
 PW_GRID|   Bounds   3            -22      21                Points:          44
 PW_GRID| Volume element (a.u.^3)  0.2493         Volume (a.u.^3)     19349.8300
 PW_GRID| Grid span                                                    FULLSPACE
 PW_GRID|   Distribution                         Average         Max         Min
 PW_GRID|   G-Vectors                             1940.4        2058        1848
 PW_GRID|   G-Rays                                  46.2          49          44
 PW_GRID|   Real Space Points                     1940.4        3696        1848

 PW_GRID| Information for grid number                                          5
 PW_GRID| Grid distributed over                                    40 processors
 PW_GRID| Real space group dimensions                                     5    8
 PW_GRID| the grid is blocked:                                                NO
 PW_GRID| Cutoff [a.u.]                                                      4.0
 PW_GRID| spherical cutoff:                                                   NO
 PW_GRID|   Bounds   1            -12      11                Points:          24
 PW_GRID|   Bounds   2            -12      11                Points:          24
 PW_GRID|   Bounds   3            -12      12                Points:          25
 PW_GRID| Volume element (a.u.^3)   1.344         Volume (a.u.^3)     19349.8300
 PW_GRID| Grid span                                                    FULLSPACE
 PW_GRID|   Distribution                         Average         Max         Min
 PW_GRID|   G-Vectors                              360.0         408         336
 PW_GRID|   G-Rays                                  15.0          17          14
 PW_GRID|   Real Space Points                      360.0         375         300

 PW_GRID| Information for grid number                                          6
 PW_GRID| Grid distributed over                                    40 processors
 PW_GRID| Real space group dimensions                                     5    8
 PW_GRID| the grid is blocked:                                                NO
 PW_GRID| Cutoff [a.u.]                                                      1.3
 PW_GRID| spherical cutoff:                                                   NO
 PW_GRID|   Bounds   1             -7       6                Points:          14
 PW_GRID|   Bounds   2             -7       6                Points:          14
 PW_GRID|   Bounds   3             -7       7                Points:          15
 PW_GRID| Volume element (a.u.^3)   6.582         Volume (a.u.^3)     19349.8300
 PW_GRID| Grid span                                                    FULLSPACE
 PW_GRID|   Distribution                         Average         Max         Min
 PW_GRID|   G-Vectors                               73.5          98          56
 PW_GRID|   G-Rays                                   5.2           7           4
 PW_GRID|   Real Space Points                       73.5          90          30

 PW_GRID| Information for grid number                                          7
 PW_GRID| Grid distributed over                                    40 processors
 PW_GRID| Real space group dimensions                                     5    8
 PW_GRID| the grid is blocked:                                                NO
 PW_GRID| Cutoff [a.u.]                                                      0.4
 PW_GRID| spherical cutoff:                                                   NO
 PW_GRID|   Bounds   1             -3       3                Points:           7
 PW_GRID|   Bounds   2             -3       3                Points:           7
 PW_GRID|   Bounds   3             -4       4                Points:           9
 PW_GRID| Volume element (a.u.^3)   43.88         Volume (a.u.^3)     19349.8300
 PW_GRID| Grid span                                                    FULLSPACE
 PW_GRID|   Distribution                         Average         Max         Min
 PW_GRID|   G-Vectors                               11.0          28           0
 PW_GRID|   G-Rays                                   1.6           4           0
 PW_GRID|   Real Space Points                       11.0          18           0

 PW_GRID| Information for grid number                                          8
 PW_GRID| Grid distributed over                                    40 processors
 PW_GRID| Real space group dimensions                                     5    8
 PW_GRID| the grid is blocked:                                                NO
 PW_GRID| Cutoff [a.u.]                                                      0.1
 PW_GRID| spherical cutoff:                                                   NO
 PW_GRID|   Bounds   1             -2       2                Points:           5
 PW_GRID|   Bounds   2             -2       2                Points:           5
 PW_GRID|   Bounds   3             -2       2                Points:           5
 PW_GRID| Volume element (a.u.^3)   154.8         Volume (a.u.^3)     19349.8300
 PW_GRID| Grid span                                                    FULLSPACE
 PW_GRID|   Distribution                         Average         Max         Min
 PW_GRID|   G-Vectors                                3.1          10           0
 PW_GRID|   G-Rays                                   0.6           2           0
 PW_GRID|   Real Space Points                        3.1           5           0

 PW_GRID| Information for grid number                                          9
 PW_GRID| Grid distributed over                                    40 processors
 PW_GRID| Real space group dimensions                                     5    8
 PW_GRID| the grid is blocked:                                                NO
 PW_GRID| Cutoff [a.u.]                                                      0.0
 PW_GRID| spherical cutoff:                                                   NO
 PW_GRID|   Bounds   1             -1       1                Points:           3
 PW_GRID|   Bounds   2             -1       1                Points:           3
 PW_GRID|   Bounds   3             -1       1                Points:           3
 PW_GRID| Volume element (a.u.^3)   716.7         Volume (a.u.^3)     19349.8300
 PW_GRID| Grid span                                                    FULLSPACE
 PW_GRID|   Distribution                         Average         Max         Min
 PW_GRID|   G-Vectors                                0.7           3           0
 PW_GRID|   G-Rays                                   0.2           1           0
 PW_GRID|   Real Space Points                        0.7           3           0

 PW_GRID| Information for grid number                                         10
 PW_GRID| Grid distributed over                                    40 processors
 PW_GRID| Real space group dimensions                                     5    8
 PW_GRID| the grid is blocked:                                                NO
 PW_GRID| Cutoff [a.u.]                                                      0.0
 PW_GRID| spherical cutoff:                                                   NO
 PW_GRID|   Bounds   1              0       0                Points:           1
 PW_GRID|   Bounds   2              0       0                Points:           1
 PW_GRID|   Bounds   3              0       0                Points:           1
 PW_GRID| Volume element (a.u.^3)  0.1935E+05     Volume (a.u.^3)     19349.8300
 PW_GRID| Grid span                                                    FULLSPACE
 PW_GRID|   Distribution                         Average         Max         Min
 PW_GRID|   G-Vectors                                0.0           1           0
 PW_GRID|   G-Rays                                   0.0           1           0
 PW_GRID|   Real Space Points                        0.0           1           0

 POISSON| Solver                                                        PERIODIC
 POISSON| Periodicity                                                        XYZ

 RS_GRID| Information for grid number                                          1
 RS_GRID|   Bounds   1           -108     107                Points:         216
 RS_GRID|   Bounds   2           -108     107                Points:         216
 RS_GRID|   Bounds   3           -115     115                Points:         231
 RS_GRID| Real space distribution over                                  5 groups
 RS_GRID| Real space distribution along direction                              2
 RS_GRID| Border size                                                         27
 RS_GRID| Real space distribution over                                  8 groups
 RS_GRID| Real space distribution along direction                              3
 RS_GRID| Border size                                                         27
 RS_GRID|   Distribution                         Average         Max         Min
 RS_GRID|   Planes                                  97.2          98          97
 RS_GRID|   Distribution                         Average         Max         Min
 RS_GRID|   Planes                                  82.9          83          82

 RS_GRID| Information for grid number                                          2
 RS_GRID|   Bounds   1            -63      62                Points:         126
 RS_GRID|   Bounds   2            -63      62                Points:         126
 RS_GRID|   Bounds   3            -66      65                Points:         132
 RS_GRID| Real space distribution over                                  5 groups
 RS_GRID| Real space distribution along direction                              2
 RS_GRID| Border size                                                         26
 RS_GRID| Real space distribution over                                  8 groups
 RS_GRID| Real space distribution along direction                              3
 RS_GRID| Border size                                                         26
 RS_GRID|   Distribution                         Average         Max         Min
 RS_GRID|   Planes                                  77.2          78          77
 RS_GRID|   Distribution                         Average         Max         Min
 RS_GRID|   Planes                                  68.5          69          68

 RS_GRID| Information for grid number                                          3
 RS_GRID|   Bounds   1            -36      35                Points:          72
 RS_GRID|   Bounds   2            -36      35                Points:          72
 RS_GRID|   Bounds   3            -38      38                Points:          77
 RS_GRID| Real space fully replicated
 RS_GRID| Group size                                                           1

 RS_GRID| Information for grid number                                          4
 RS_GRID|   Bounds   1            -21      20                Points:          42
 RS_GRID|   Bounds   2            -21      20                Points:          42
 RS_GRID|   Bounds   3            -22      21                Points:          44
 RS_GRID| Real space fully replicated
 RS_GRID| Group size                                                           1

 RS_GRID| Information for grid number                                          5
 RS_GRID|   Bounds   1            -12      11                Points:          24
 RS_GRID|   Bounds   2            -12      11                Points:          24
 RS_GRID|   Bounds   3            -12      12                Points:          25
 RS_GRID| Real space fully replicated
 RS_GRID| Group size                                                           1

 RS_GRID| Information for grid number                                          6
 RS_GRID|   Bounds   1             -7       6                Points:          14
 RS_GRID|   Bounds   2             -7       6                Points:          14
 RS_GRID|   Bounds   3             -7       7                Points:          15
 RS_GRID| Real space fully replicated
 RS_GRID| Group size                                                           1

 RS_GRID| Information for grid number                                          7
 RS_GRID|   Bounds   1             -3       3                Points:           7
 RS_GRID|   Bounds   2             -3       3                Points:           7
 RS_GRID|   Bounds   3             -4       4                Points:           9
 RS_GRID| Real space fully replicated
 RS_GRID| Group size                                                           1

 RS_GRID| Information for grid number                                          8
 RS_GRID|   Bounds   1             -2       2                Points:           5
 RS_GRID|   Bounds   2             -2       2                Points:           5
 RS_GRID|   Bounds   3             -2       2                Points:           5
 RS_GRID| Real space fully replicated
 RS_GRID| Group size                                                           1

 RS_GRID| Information for grid number                                          9
 RS_GRID|   Bounds   1             -1       1                Points:           3
 RS_GRID|   Bounds   2             -1       1                Points:           3
 RS_GRID|   Bounds   3             -1       1                Points:           3
 RS_GRID| Real space fully replicated
 RS_GRID| Group size                                                           1

 RS_GRID| Information for grid number                                         10
 RS_GRID|   Bounds   1              0       0                Points:           1
 RS_GRID|   Bounds   2              0       0                Points:           1
 RS_GRID|   Bounds   3              0       0                Points:           1
 RS_GRID| Real space fully replicated
 RS_GRID| Group size                                                           1

 Spin 1

 Number of electrons:                                                       1081
 Number of occupied orbitals:                                               1081
 Number of molecular orbitals:                                              1081

 Spin 2

 Number of electrons:                                                       1080
 Number of occupied orbitals:                                               1080
 Number of molecular orbitals:                                              1080

 Number of orbital functions:                                               1620
 Number of independent orbital functions:                                   1620

 Extrapolation method: initial_guess


 SCF WAVEFUNCTION OPTIMIZATION

  Step     Update method      Time    Convergence         Total energy    Change
  ------------------------------------------------------------------------------
     1 NoMix/Diag. 0.40E+00    5.9     0.00303036     -8111.7779814349 -8.11E+03
     2 Broy./Diag. 0.40E+00    9.8     0.00148870     -8111.7765163938  1.47E-03
     3 Broy./Diag. 0.40E+00    9.7     0.00044786     -8111.7776328281 -1.12E-03
     4 Broy./Diag. 0.40E+00    9.7     0.00018531     -8111.7789000395 -1.27E-03
     5 Broy./Diag. 0.40E+00    9.8     0.00007669     -8111.7789507051 -5.07E-05
     6 Broy./Diag. 0.40E+00    9.9     0.00002635     -8111.7783921539  5.59E-04
     7 Broy./Diag. 0.40E+00    9.8     0.00003565     -8111.7782724912  1.20E-04
     8 Broy./Diag. 0.40E+00    9.8     0.00001657     -8111.7782651913  7.30E-06
     9 Broy./Diag. 0.40E+00    9.8     0.00001025     -8111.7782390196  2.62E-05
    10 Broy./Diag. 0.40E+00    9.8     0.00000315     -8111.7782708668 -3.18E-05

  *** SCF run converged in    10 steps ***


  Electronic density on regular grids:      -2160.9999999994        0.0000000006
  Core density on regular grids:             2159.9999999994       -0.0000000006
  Total charge density on r-space grids:       -1.0000000000
  Total charge density g-space grids:          -1.0000000000

  Overlap energy of the core charge distribution:               0.00000000000202
  Self energy of the core charge distribution:             -17095.63438313942970
  Core Hamiltonian energy:                                   4650.80428371988728
  Hartree energy:                                            5621.21873939734724
  Exchange-correlation energy:                              -1307.30966552676568

  DFT+U energy:                                                19.14275468215037

  Total energy:                                             -8111.77827086680554

  outer SCF iter =    1 RMS gradient =   0.31E-05 energy =      -8111.7782708668
  outer SCF loop converged in   1 iterations or   10 steps


  Integrated absolute spin density  :                               1.0926211503
  Ideal and single determinant S**2 :                    0.750000       0.755030

 !-----------------------------------------------------------------------------!
                     Mulliken Population Analysis

 #  Atom  Element  Kind  Atomic population (alpha,beta) Net charge  Spin moment
       1     Ti       1         5.244766     5.244770     1.510464    -0.000004
       2     Ti       1         5.244712     5.244709     1.510579     0.000003
       3     Ti       1         5.245233     5.245237     1.509531    -0.000004
       4     Ti       1         5.245524     5.245009     1.509467     0.000515
       5     Ti       1         5.244744     5.244746     1.510509    -0.000002
       6     Ti       1         5.244720     5.244717     1.510562     0.000003
       7     Ti       1         5.244758     5.244761     1.510481    -0.000004
       8     Ti       1         5.244828     5.244843     1.510329    -0.000015
       9     Ti       1         5.244744     5.244746     1.510509    -0.000002
      10     Ti       1         5.244720     5.244717     1.510562     0.000003
      11     Ti       1         5.245232     5.245236     1.509532    -0.000004
      12     Ti       1         5.245356     5.245364     1.509280    -0.000009
      13     Ti       1         5.245108     5.245116     1.509776    -0.000008
      14     Ti       1         5.245360     5.245369     1.509270    -0.000009
      15     Ti       1         5.244766     5.244770     1.510464    -0.000004
      16     Ti       1         5.244712     5.244709     1.510579     0.000003
      17     Ti       1         5.244758     5.244761     1.510481    -0.000004
      18     Ti       1         5.244828     5.244843     1.510329    -0.000015
      19     Ti       1         5.244748     5.244754     1.510497    -0.000006
      20     Ti       1         5.244661     5.244673     1.510665    -0.000012
      21     Ti       1         5.244599     5.244785     1.510616    -0.000187
      22     Ti       1         5.242649     5.247605     1.509746    -0.004956
      23     Ti       1         5.244696     5.244708     1.510596    -0.000012
      24     Ti       1         5.244659     5.244671     1.510670    -0.000012
      25     Ti       1         5.244756     5.244762     1.510482    -0.000006
      26     Ti       1         5.244768     5.244755     1.510477     0.000013
      27     Ti       1         5.244696     5.244708     1.510596    -0.000012
      28     Ti       1         5.244659     5.244671     1.510670    -0.000012
      29     Ti       1         5.244601     5.244788     1.510611    -0.000187
      30     Ti       1         5.245365     5.245153     1.509482     0.000211
      31     Ti       1         5.245086     5.245071     1.509843     0.000015
      32     Ti       1         5.245369     5.245158     1.509472     0.000211
      33     Ti       1         5.244748     5.244754     1.510497    -0.000006
      34     Ti       1         5.244661     5.244673     1.510666    -0.000012
      35     Ti       1         5.244756     5.244762     1.510482    -0.000006
      36     Ti       1         5.244768     5.244755     1.510477     0.000013
      37     Ti       1         5.244783     5.244780     1.510436     0.000003
      38     Ti       1         5.244994     5.245020     1.509985    -0.000026
      39     Ti       1         5.247666     5.243946     1.508388     0.003720
      40     Ti       1         5.789793     4.787237     1.422970     1.002556
      41     Ti       1         5.246717     5.245503     1.507780     0.001214
      42     Ti       1         5.244971     5.244997     1.510033    -0.000026
      43     Ti       1         5.244782     5.244779     1.510440     0.000003
      44     Ti       1         5.244691     5.244571     1.510737     0.000120
      45     Ti       1         5.246717     5.245504     1.507779     0.001214
      46     Ti       1         5.244971     5.244997     1.510033    -0.000026
      47     Ti       1         5.247667     5.243953     1.508380     0.003714
      48     Ti       1         5.246729     5.245605     1.507666     0.001124
      49     Ti       1         5.245275     5.244992     1.509733     0.000283
      50     Ti       1         5.246737     5.245612     1.507651     0.001125
      51     Ti       1         5.244783     5.244780     1.510436     0.000003
      52     Ti       1         5.244994     5.245020     1.509985    -0.000026
      53     Ti       1         5.244782     5.244779     1.510440     0.000003
      54     Ti       1         5.244691     5.244571     1.510738     0.000120
      55     Ti       1         5.244812     5.244810     1.510378     0.000003
      56     Ti       1         5.244836     5.244850     1.510314    -0.000014
      57     Ti       1         5.247753     5.243842     1.508405     0.003911
      58     Ti       1         5.243224     5.248339     1.508437    -0.005116
      59     Ti       1         5.246896     5.245676     1.507428     0.001219
      60     Ti       1         5.244832     5.244847     1.510321    -0.000014
      61     Ti       1         5.244811     5.244808     1.510381     0.000003
      62     Ti       1         5.244741     5.244730     1.510529     0.000011
      63     Ti       1         5.246896     5.245677     1.507427     0.001219
      64     Ti       1         5.244832     5.244847     1.510321    -0.000014
      65     Ti       1         5.247753     5.243848     1.508399     0.003905
      66     Ti       1         5.245425     5.245204     1.509371     0.000222
      67     Ti       1         5.245279     5.244992     1.509728     0.000287
      68     Ti       1         5.245431     5.245210     1.509358     0.000221
      69     Ti       1         5.244812     5.244810     1.510378     0.000003
      70     Ti       1         5.244836     5.244850     1.510314    -0.000014
      71     Ti       1         5.244811     5.244808     1.510381     0.000003
      72     Ti       1         5.244741     5.244730     1.510529     0.000011
      73     Ti       1         5.244778     5.244785     1.510437    -0.000006
      74     Ti       1         5.244754     5.244751     1.510495     0.000003
      75     Ti       1         5.244607     5.244774     1.510619    -0.000167
      76     Ti       1         5.245664     5.245126     1.509210     0.000539
      77     Ti       1         5.244863     5.244874     1.510263    -0.000011
      78     Ti       1         5.244762     5.244759     1.510479     0.000003
      79     Ti       1         5.244787     5.244794     1.510419    -0.000006
      80     Ti       1         5.244818     5.244833     1.510349    -0.000015
      81     Ti       1         5.244863     5.244874     1.510262    -0.000011
      82     Ti       1         5.244762     5.244759     1.510479     0.000003
      83     Ti       1         5.244609     5.244776     1.510615    -0.000167
      84     Ti       1         5.245342     5.245350     1.509309    -0.000008
      85     Ti       1         5.245073     5.245057     1.509870     0.000016
      86     Ti       1         5.245347     5.245355     1.509298    -0.000008
      87     Ti       1         5.244779     5.244785     1.510437    -0.000006
      88     Ti       1         5.244754     5.244751     1.510495     0.000003
      89     Ti       1         5.244787     5.244794     1.510419    -0.000006
      90     Ti       1         5.244818     5.244833     1.510349    -0.000015
      91     O        2         3.379725     3.379722    -0.759447     0.000003
      92     O        2         3.379778     3.379780    -0.759559    -0.000002
      93     O        2         3.379763     3.379765    -0.759528    -0.000003
      94     O        2         3.379917     3.379915    -0.759832     0.000002
      95     O        2         3.380990     3.381050    -0.762040    -0.000061
      96     O        2         3.380991     3.381052    -0.762043    -0.000061
      97     O        2         3.379656     3.379699    -0.759355    -0.000044
      98     O        2         3.379656     3.379699    -0.759355    -0.000044
      99     O        2         3.379771     3.379774    -0.759545    -0.000002
     100     O        2         3.379711     3.379708    -0.759420     0.000003
     101     O        2         3.379915     3.379913    -0.759829     0.000002
     102     O        2         3.379770     3.379773    -0.759542    -0.000003
     103     O        2         3.379705     3.379700    -0.759405     0.000006
     104     O        2         3.379700     3.379694    -0.759394     0.000006
     105     O        2         3.379858     3.379860    -0.759718    -0.000001
     106     O        2         3.380229     3.380218    -0.760447     0.000011
     107     O        2         3.379771     3.379774    -0.759545    -0.000002
     108     O        2         3.379711     3.379708    -0.759420     0.000003
     109     O        2         3.379770     3.379773    -0.759542    -0.000003
[...]
       0.22536914       0.22548875       0.22591884       0.22596001
       0.22724247       0.22761349       0.22764782       0.22775447
       0.22789786       0.22913777       0.23011492       0.23827526
       0.23843960       0.23866850       0.23890019       0.23899001
       0.23905377       0.23917343       0.23921298       0.23938895
       0.23943493       0.23950877       0.23951440       0.23986131
       0.23991779       0.24061707       0.24154481       0.24195900
       0.24209683       0.24228165       0.24255592       0.24272069
       0.24289702       0.24305680       0.24315174       0.24380667
       0.24390386       0.24512905       0.24518517       0.24575980
       0.24579492       0.24587555       0.24594701       0.24606832
       0.24609227       0.24621626       0.24654266       0.24670158
       0.24686455       0.24692520       0.24700190       0.24700485
       0.24836736       0.25195158       0.25215579       0.25233746
       0.25242412       0.25250931       0.25269198       0.25270789
       0.25279555       0.25296374       0.25300393       0.25306359
       0.25326168       0.25356370       0.25372900       0.25379136
       0.25441646       0.25443364       0.25467020       0.25495838
       0.25505172       0.25520407       0.25552702       0.25560526
       0.25610098       0.25648807       0.25653933       0.25736087
       0.25763751       0.25809975       0.25826248       0.25993133
       0.26075161       0.26075268       0.26077387       0.26083932
       0.26107365       0.26115057       0.26117070       0.26172589
       0.26180440       0.26185818       0.26194249       0.26212236
       0.26219175       0.26223073       0.26224019       0.26290300
       0.26295585       0.26316777       0.26362118       0.26405994
       0.26424849       0.26427712       0.26433669       0.26442938
       0.26448680       0.26454695       0.26473382       0.26496238
       0.26496553       0.26520216       0.26546811       0.26565155
       0.26698567       0.26720948       0.26723996       0.26738367
       0.26741486       0.26791506       0.26816847       0.26991630
       0.27389837       0.27392548       0.27406120       0.27443388
       0.27450105       0.27451377       0.27473606       0.27475856
       0.27914539       0.27928581       0.27931163       0.27934852
       0.27952366       0.27965145       0.27969007       0.28076437
       0.28094003       0.28096852       0.28116297       0.28120175
       0.28123758       0.28139236       0.28146772       0.28151104
       0.28168247       0.28172480       0.28214074       0.28224576
       0.28281701       0.28286888       0.28288633       0.28289743
       0.28314422       0.28318027       0.28364974       0.28377950
       0.28404261       0.28410602       0.28438263       0.28441702
       0.28462212       0.28470931       0.28474263       0.28477403
       0.28498446       0.28498788       0.28500161       0.28542029
       0.28554840       0.28564587       0.28575014       0.28587617
       0.28611390       0.28653150       0.28656118       0.28663609
       0.28673966       0.28681012       0.28844834       0.28901112
       0.28936311       0.28943394       0.29134401       0.29165816
       0.29219181       0.29344124       0.29369810       0.29396145
       0.29451674       0.29501136       0.29512147       0.29526911
       0.29551426       0.29570267       0.29582739       0.29584005
       0.29659424       0.29681572       0.30033497       0.30035291
       0.30038706       0.30049049       0.30052762       0.30055237
       0.30069002       0.30074626       0.30082244       0.30098308
       0.30143182       0.30143352       0.30189821       0.30205830
       0.30244267       0.30301255       0.30472114       0.30472559
       0.30484795       0.30495280       0.30528459       0.30542950
       0.30550739       0.30607851       0.30934473       0.30970759
       0.30990877       0.31021484       0.31225651       0.31248409
       0.31253798       0.31256300       0.31264861       0.31275927
       0.31297664       0.31318987       0.31433260       0.31616041
       0.31635114       0.31673721       0.31686262       0.32040200
       0.32054534       0.32056750       0.32074583       0.32098964
       0.32122090       0.32136402       0.32141858       0.32568165
       0.32584595       0.32626966       0.32656416       0.32737498
       0.32742943       0.33153371       0.33191066       0.34060735
 Fermi Energy [eV] :    9.268397
  
  Lowest eigenvalues of the unoccupied subspace spin            1
 ---------------------------------------------

  
  Lowest eigenvalues of the unoccupied subspace spin            2
 ---------------------------------------------


 ENERGY| Total FORCE_EVAL ( QS ) energy (a.u.):            -8111.778270866805542


 -------------------------------------------------------------------------------
 -                                                                             -
 -                                DBCSR STATISTICS                             -
 -                                                                             -
 -------------------------------------------------------------------------------
 COUNTER                                    TOTAL       BLAS       SMM       ACC
 flops     4 x    25 x     4             25920000     100.0%      0.0%      0.0%
 flops    10 x    25 x     4             32400000     100.0%      0.0%      0.0%
 flops     4 x    25 x    10             32400000     100.0%      0.0%      0.0%
 flops    10 x    25 x    10             40500000     100.0%      0.0%      0.0%
 flops     4 x    24 x     4             49766400     100.0%      0.0%      0.0%
 flops    10 x    24 x     4             62208000     100.0%      0.0%      0.0%
 flops     4 x    24 x    10             62208000     100.0%      0.0%      0.0%
 flops    10 x    24 x    10             77760000     100.0%      0.0%      0.0%
 flops     4 x     4 x    56            321108480     100.0%      0.0%      0.0%
 flops     4 x     4 x    57            326842560     100.0%      0.0%      0.0%
 flops    10 x     4 x    56            399168000     100.0%      0.0%      0.0%
 flops     4 x    10 x    56            399168000     100.0%      0.0%      0.0%
 flops    10 x     4 x    57            406296000     100.0%      0.0%      0.0%
 flops     4 x    10 x    57            406296000     100.0%      0.0%      0.0%
 flops    10 x    10 x    56            504504000     100.0%      0.0%      0.0%
 flops    10 x    10 x    57            513513000     100.0%      0.0%      0.0%
 flops     4 x     4 x    32           2201886720     100.0%      0.0%      0.0%
 flops    10 x     4 x    32           2737152000     100.0%      0.0%      0.0%
 flops     4 x    10 x    32           2737152000     100.0%      0.0%      0.0%
 flops     4 x    32 x     4           3284582400     100.0%      0.0%      0.0%
 flops    10 x    10 x    32           3459456000     100.0%      0.0%      0.0%
 flops    10 x    32 x     4           4105728000     100.0%      0.0%      0.0%
 flops     4 x    32 x    10           4105728000     100.0%      0.0%      0.0%
 flops    10 x    32 x    10           5132160000     100.0%      0.0%      0.0%
 flops     4 x     4 x    64           9541509120     100.0%      0.0%      0.0%
 flops    10 x     4 x    64          11860992000     100.0%      0.0%      0.0%
 flops     4 x    10 x    64          11860992000     100.0%      0.0%      0.0%
 flops    10 x    10 x    64          14990976000     100.0%      0.0%      0.0%
 flops inhomo. stacks                           0       0.0%      0.0%      0.0%
 flops total                        79.678373E+09     100.0%      0.0%      0.0%
 flops max/rank                      2.149528E+09     100.0%      0.0%      0.0%
 matmuls inhomo. stacks                         0       0.0%      0.0%      0.0%
 matmuls total                           23533200     100.0%      0.0%      0.0%
 number of processed stacks                 83360     100.0%      0.0%      0.0%
 average stack size                                   282.3       0.0       0.0
 marketing flops                   141.780566E+09
 -------------------------------------------------------------------------------
 # multiplications                             25
 max memory usage/rank             419.237888E+06
 # max total images/rank                        5
 # max 3D layers                                1
 # MPI messages exchanged                   63000
 MPI messages size (bytes):
  total size                         6.490199E+09
  min size                          40.960000E+03
  max size                         280.704000E+03
  average size                     103.019031E+03
 MPI breakdown and total messages size (bytes):
             size <=      128                   0                        0
       128 < size <=     8192                   0                        0
      8192 < size <=    32768                   0                        0
     32768 < size <=   131072               49752               3643367040
    131072 < size <=  4194304               13248               2846832480
   4194304 < size <= 16777216                   0                        0
  16777216 < size                               0                        0
 -------------------------------------------------------------------------------

 *** WARNING in dbcsr/mm/dbcsr_mm.F:268 :: Using a non-square number of ***
 *** MPI ranks might lead to poor performance.                          ***
 *** Used ranks: 40                                                     ***
 *** Suggested: 36 81                                                   ***

 -------------------------------------------------------------------------------

 MEMORY| Estimated peak process memory [MiB]                                 402

 -------------------------------------------------------------------------------
 ----                             MULTIGRID INFO                            ----
 -------------------------------------------------------------------------------
 count for grid        1:         884837          cutoff [a.u.]          325.00
 count for grid        2:         501795          cutoff [a.u.]          108.33
 count for grid        3:         797619          cutoff [a.u.]           36.11
 count for grid        4:        1053894          cutoff [a.u.]           12.04
 count for grid        5:         551052          cutoff [a.u.]            4.01
 count for grid        6:              0          cutoff [a.u.]            1.34
 count for grid        7:              0          cutoff [a.u.]            0.45
 count for grid        8:              0          cutoff [a.u.]            0.15
 count for grid        9:              0          cutoff [a.u.]            0.05
 count for grid       10:              0          cutoff [a.u.]            0.02
 total gridlevel count  :        3789197

 -------------------------------------------------------------------------------
 -                                                                             -
 -                         MESSAGE PASSING PERFORMANCE                         -
 -                                                                             -
 -------------------------------------------------------------------------------

 ROUTINE             CALLS      AVE VOLUME [Bytes]
 MP_Group               35
 MP_Bcast             2303                 168179.
 MP_Allreduce          615                   1545.
 MP_Sync               366
 MP_Alltoall          1283                1831222.
 MP_ISendRecv        13104                  15276.
 MP_Wait             20228
 MP_comm_split          20
 MP_ISend             8114                 129023.
 MP_IRecv             8088                 128626.
 MP_Recv                66                 414720.
 MP_Memory            3858
 -------------------------------------------------------------------------------


 -------------------------------------------------------------------------------
 -                                                                             -
 -                           R E F E R E N C E S                               -
 -                                                                             -
 -------------------------------------------------------------------------------
 
 CP2K version 6.1, the CP2K developers group (2018).
 CP2K is freely available from https://www.cp2k.org/ .

 Schuett, Ole; Messmer, Peter; Hutter, Juerg; VandeVondele, Joost. 
 Electronic Structure Calculations on Graphics Processing Units, John Wiley & Sons, Ltd, 173-190 (2016). 
 GPU-Accelerated Sparse Matrix-Matrix Multiplication for Linear Scaling Density Functional Theory.
 http://dx.doi.org/10.1002/9781118670712.ch8


 Borstnik, U; VandeVondele, J; Weber, V; Hutter, J. 
 PARALLEL COMPUTING, 40 (5-6), 47-58 (2014). 
 Sparse matrix multiplication: The distributed block-compressed sparse
 row library.
 http://dx.doi.org/10.1016/j.parco.2014.03.012


 Hutter, J; Iannuzzi, M; Schiffmann, F; VandeVondele, J. 
 WILEY INTERDISCIPLINARY REVIEWS-COMPUTATIONAL MOLECULAR SCIENCE, 4 (1), 15-25 (2014). 
 CP2K: atomistic simulations of condensed matter systems.
 http://dx.doi.org/10.1002/wcms.1159


 VandeVondele, J; Hutter, J. 
 JOURNAL OF CHEMICAL PHYSICS, 127 (11), 114105 (2007). 
 Gaussian basis sets for accurate calculations on molecular systems in
 gas and condensed phases.
 http://dx.doi.org/10.1063/1.2770708


 Krack, M. 
 THEORETICAL CHEMISTRY ACCOUNTS, 114 (1-3), 145-152 (2005). 
 Pseudopotentials for H to Kr optimized for gradient-corrected
 exchange-correlation functionals.
 http://dx.doi.org/10.1007/s00214-005-0655-y


 VandeVondele, J; Krack, M; Mohamed, F; Parrinello, M; Chassaing, T;
 Hutter, J. COMPUTER PHYSICS COMMUNICATIONS, 167 (2), 103-128 (2005). 
 QUICKSTEP: Fast and accurate density functional calculations using a
 mixed Gaussian and plane waves approach.
 http://dx.doi.org/10.1016/j.cpc.2004.12.014


 Frigo, M; Johnson, SG. 
 PROCEEDINGS OF THE IEEE, 93 (2), 216-231 (2005). 
 The design and implementation of FFTW3.
 http://dx.doi.org/10.1109/JPROC.2004.840301


 Hartwigsen, C; Goedecker, S; Hutter, J. 
 PHYSICAL REVIEW B, 58 (7), 3641-3662 (1998). 
 Relativistic separable dual-space Gaussian pseudopotentials from H to Rn.
 http://dx.doi.org/10.1103/PhysRevB.58.3641


 Dudarev, SL; Botton, GA; Savrasov, SY; Humphreys, CJ; Sutton, AP. 
 PHYSICAL REVIEW B, 57 (3), 1505-1509 (1998). 
 Electron-energy-loss spectra and the structural stability of
 nickel oxide: An LSDA+U study.
 http://dx.doi.org/10.1103/PhysRevB.57.1505


 Lippert, G; Hutter, J; Parrinello, M. 
 MOLECULAR PHYSICS, 92 (3), 477-487 (1997). 
 A hybrid Gaussian and plane wave density functional scheme.
 http://dx.doi.org/10.1080/002689797170220


 Dudarev, SL; Manh, DN; Sutton, AP. 
 PHILOSOPHICAL MAGAZINE B, 75 (5), 613-628 (1997). 
 Effect of Mott-Hubbard correlations on the electronic
 structure and structural stability of uranium dioxide.
 http://dx.doi.org/10.1080/13642819708202343


 Perdew, JP; Burke, K; Ernzerhof, M. 
 PHYSICAL REVIEW LETTERS, 77 (18), 3865-3868 (1996). 
 Generalized gradient approximation made simple.
 http://dx.doi.org/10.1103/PhysRevLett.77.3865


 Goedecker, S; Teter, M; Hutter, J. 
 PHYSICAL REVIEW B, 54 (3), 1703-1710 (1996). 
 Separable dual-space Gaussian pseudopotentials.
 http://dx.doi.org/10.1103/PhysRevB.54.1703


 -------------------------------------------------------------------------------
 -                                                                             -
 -                                T I M I N G                                  -
 -                                                                             -
 -------------------------------------------------------------------------------
 SUBROUTINE                       CALLS  ASD         SELF TIME        TOTAL TIME
                                MAXIMUM       AVERAGE  MAXIMUM  AVERAGE  MAXIMUM
 CP2K                                 1  1.0    0.030    0.032  111.258  111.259
 qs_energies                          1  2.0    0.000    0.000  110.964  110.967
 scf_env_do_scf                       1  3.0    0.000    0.000   97.881   98.135
 scf_env_do_scf_inner_loop           10  4.0    0.001    0.001   97.881   98.134
 qs_ks_update_qs_env                 10  5.0    0.000    0.000   49.390   49.431
 rebuild_ks_matrix                   10  6.0    0.000    0.000   49.383   49.423
 qs_ks_build_kohn_sham_matrix        10  7.0    0.106    0.146   49.383   49.423
 qs_rho_update_rho                   11  5.0    0.000    0.000   42.141   42.141
 calculate_rho_elec                  22  6.0   37.165   38.056   42.141   42.141
 sum_up_and_integrate                10  8.0    0.021    0.025   38.067   38.068
 integrate_v_rspace                  20  9.0   34.116   34.943   38.045   38.052
 pw_transfer                        631  9.5    0.028    0.036   13.018   13.472
 fft_wrap_pw1pw2                    611 10.5    0.004    0.005   12.945   13.412
 fft_wrap_pw1pw2_330                233 11.6    0.627    0.786   12.410   12.810
 fft3d_ps                           611 12.5    5.710    6.418   10.788   11.654
 qs_vxc_create                       10  8.0    0.000    0.000   10.405   10.443
 xc_vxc_pw_create                    10  9.0    0.128    0.162   10.405   10.443
 qs_scf_new_mos                      10  5.0    0.000    0.000    8.118    8.177
 qs_energies_init_hamiltonians        1  3.0    0.000    0.000    8.110    8.110
 build_core_hamiltonian_matrix        1  4.0    0.000    0.000    7.112    7.677
 eigensolver                         20  6.0    0.001    0.002    7.613    7.617
 cp_fm_syevd                         20  7.0    0.000    0.000    6.086    6.091
 cp_fm_redistribute_end              20  8.0    1.837    6.038    1.846    6.046
 cp_fm_syevd_base                    20  8.0    4.176    5.975    4.176    5.975
 xc_rho_set_and_dset_create          10 10.0    0.061    0.073    5.533    5.920
 density_rs2pw                       22  7.0    0.002    0.002    4.550    5.812
 mp_alltoall_z22v                   611 14.5    4.279    5.804    4.279    5.804
 rs_pw_transfer                     424  9.4    0.003    0.004    4.108    5.487
 build_core_ppnl                      1  5.0    4.355    4.742    4.355    4.742
 init_scf_run                         1  3.0    0.000    0.000    4.412    4.413
 scf_env_initial_rho_setup            1  4.0    0.000    0.000    4.386    4.387
 mp_waitany                        4040 11.3    2.312    4.039    2.312    4.039
 rs_pw_transfer_RS2PW_330            24  8.9    0.355    0.452    2.227    3.605
 yz_to_x                            169 13.1    0.250    0.277    2.376    3.263
 x_to_yz                            190 13.9    0.514    0.616    2.664    3.129
 build_core_ppl                       1  5.0    2.558    2.789    2.558    2.789
 potential_pw2rs                     20 10.0    0.003    0.003    2.628    2.635
 rs_distribute_matrix                42  8.4    0.098    0.114    1.417    2.503
 mp_alltoall_d11v                   262  9.2    1.384    2.484    1.384    2.484
 -------------------------------------------------------------------------------

 The number of warnings for this run is : 1
 
 -------------------------------------------------------------------------------
  **** **** ******  **  PROGRAM ENDED AT                 2019-08-02 13:25:06.950
 ***** ** ***  *** **   PROGRAM RAN ON            cpn-p28-06.cbls.ccr.buffalo.ed
 **    ****   ******    PROGRAM RAN BY                                  pavankum
 ***** **    ** ** **   PROGRAM PROCESS ID                                 21744
  **** **  *******  **  PROGRAM STOPPED IN /projects/academic/mdupuis2/pavan/VAB
                                           _calculation/results_for_paper/7.TiO2
                                           _pbe_plus_U10/point_0.1
