      77
 i =        1, E =     -1335.5511595074
 Fe        18.3482665862       -0.0000254302       -0.0000383695
 Fe        15.2628773922        0.0000240318        0.0000222846
 Fe        12.1748628843       -0.0001632781       -0.0003221676
 Fe         9.1686153630        0.0000308251       -0.0000041994
 Fe         6.1621767370        0.0002091326        0.0005648515
 Fe         3.0737258375       -0.0000373928       -0.0000757995
 Fe        -0.0317151823        0.0001017093       -0.0006596410
  O        18.3272033486       -0.0000167838        2.1411530472
  O        18.3269525697        0.0000304638       -2.1411687977
  O        19.8542328365       -1.2569618770       -0.0000006012
  O        19.8541618780        1.2569890589        0.0000107233
  O        15.2913604489       -0.0004445568        2.1385149174
  O        15.2913458335        0.0004759290       -2.1386706876
  O        16.8239085980       -1.2358690346       -0.0000394994
  O        16.8239374662        1.2358708602        0.0003622110
  O        12.3008308634        0.0038965680        2.1328093254
  O        12.3050758455       -0.0042461815       -2.1337858508
  O        13.7729443008       -1.2388874834       -0.0004452442
  O        13.7728406124        1.2388243231        0.0004909910
  O         9.1702868858       -0.0026187607        2.2743327339
  O         9.1702737439        0.0026360295       -2.2743378138
  O        10.7953251590       -1.3043658704        0.0080606908
  O        10.7955507941        1.3041279601       -0.0103935848
  O         6.0292030872        0.0029370199        2.1459542396
  O         6.0318233136       -0.0027454841       -2.1444350494
  O         7.5426754342       -1.3074872242        0.0132219948
  O         7.5428903913        1.3078688764       -0.0103275959
  O         3.0372839665       -0.0005480634        2.1394141640
  O         3.0372225767        0.0005185360       -2.1393727309
  O         4.5654761410       -1.2411044804       -0.0006446899
  O         4.5653357134        1.2411697292        0.0005574208
  O         0.0010148320       -0.0000499970        2.1421870135
  O         0.0007387547        0.0000262376       -2.1427386178
  O         1.5067641670       -1.2312807736       -0.0003802549
  O         1.5068448306        1.2313139386        0.0000871140
  H        18.2814365938       -0.8135225439       -2.6919524961
  H        18.2811143169        0.8135816792       -2.6919255430
  H        18.2813890400       -0.8135485800        2.6919434986
  H        18.2816328557        0.8135041541        2.6919812198
  H        19.8603521199       -2.2355520063        0.0000114349
  H        19.8603753997        2.2355723273       -0.0000177180
  H        15.1518000144       -0.8081918501       -2.6810646827
  H        15.1500891312        0.8087969668       -2.6811051433
  H        15.1504227700       -0.8085814571        2.6813658215
  H        15.1520628150        0.8080294653        2.6813172377
  H        16.8020487389       -2.2172532368       -0.0000006159
  H        16.8020401157        2.2172554582        0.0001038520
  H        12.0991004664       -0.7984872492       -2.6787278648
  H        12.0903862631        0.7921604395       -2.6732988392
  H        12.0895490868       -0.7927646898        2.6728844748
  H        12.0982456983        0.7986803561        2.6779366563
  H        13.7415500213       -2.2186235095        0.0014945794
  H        13.7414689261        2.2185700824       -0.0008692838
  H         9.1670072304       -0.8048041342       -2.8348964340
  H         9.1669717217        0.8088339983       -2.8367205169
  H         9.1668623836       -0.8088172482        2.8367143336
  H         9.1667283788        0.8048037239        2.8349136641
  H        10.7850647329       -2.2819097237       -0.0026541375
  H        10.7851882170        2.2816813950        0.0007855790
  H         6.2361238944       -0.8019371719       -2.6821945147
  H         6.2451543511        0.7974014321       -2.6779275654
  H         6.2444196467       -0.7973186613        2.6787013817
  H         6.2353788150        0.8020383263        2.6832533376
  H         7.5507493536       -2.2848980011       -0.0008101654
  H         7.5508607373        2.2852556015        0.0026749749
  H         3.1807318854       -0.8077814692       -2.6815331367
  H         3.1821598204        0.8084966740       -2.6815950511
  H         3.1824561453       -0.8086404476        2.6813469804
  H         3.1810436667        0.8078652768        2.6812866306
  H         4.5942398784       -2.2210199136        0.0008088701
  H         4.5941506861        2.2210713473       -0.0014557339
  H         0.0509765254       -0.8139362438       -2.6925009364
  H         0.0508787664        0.8140137419       -2.6924700199
  H         0.0511215266       -0.8137537914        2.6923920084
  H         0.0511928044        0.8136445881        2.6924040972
  H         1.5335827228       -2.2135557389       -0.0001426827
  H         1.5335719172        2.2135848265        0.0000226715
      77
 i =        2, E =     -1335.5528305135
 Fe        18.2973480553        0.0002200193        0.0003650604
 Fe        15.2543357419       -0.0003343787        0.0001298884
 Fe        12.2293826291        0.0029148073        0.0056742586
 Fe         9.1766266512        0.0002136852        0.0001055401
 Fe         6.1638277379       -0.0037354758       -0.0124941142
 Fe         3.0932066395        0.0004422076       -0.0000637280
 Fe        -0.0045344274       -0.0000388637       -0.0001602937
  O        18.3231782074       -0.0000449848        2.1346025514
  O        18.3228871351        0.0000574719       -2.1342235194
  O        19.8496478413       -1.2245537526       -0.0002046400
  O        19.8498399958        1.2246818853       -0.0001705338
  O        15.2959745257       -0.0009320836        2.1442615942
  O        15.2966137855        0.0010009245       -2.1439758584
  O        16.7965132016       -1.2316050160       -0.0001641897
  O        16.7961747682        1.2315931629        0.0006980857
  O        12.2843440758        0.0066695167        2.1429121850
  O        12.2854803706       -0.0077641646       -2.1424105764
  O        13.7919250391       -1.2388248273       -0.0002707426
  O        13.7937345953        1.2397888016        0.0006990041
  O         9.1708356055       -0.0021531634        2.2644464318
  O         9.1713209200        0.0021835596       -2.2644346192
  O        10.8253411839       -1.2662701974        0.0139383895
  O        10.8223342756        1.2673468609       -0.0178775569
  O         6.0404541263        0.0049750420        2.1394628546
  O         6.0430188717       -0.0046276673       -2.1468690581
  O         7.5440078404       -1.2841874508        0.0208633627
  O         7.5401922007        1.2830523914       -0.0169938022
  O         3.0134938629       -0.0011206629        2.1458714104
  O         3.0136147679        0.0010476214       -2.1459778387
  O         4.5689747242       -1.2316489194       -0.0011312037
  O         4.5713112216        1.2304278400        0.0008654844
  O        -0.0129421327       -0.0000823715        2.1376669962
  O        -0.0135954167        0.0000767280       -2.1369969176
  O         1.5380427152       -1.2145828364       -0.0013237652
  O         1.5376995558        1.2147621680        0.0001238136
  H        18.2778090373       -0.8184148960       -2.6990745029
  H        18.2774424079        0.8185099220       -2.6990644097
  H        18.2777719440       -0.8186816030        2.6991416243
  H        18.2780531332        0.8186068215        2.6991457826
  H        19.8596383816       -2.2212377922        0.0000475280
  H        19.8595668431        2.2213552584        0.0000118953
  H        15.1449528613       -0.8204403490       -2.6866817565
  H        15.1429930329        0.8216724102       -2.6870996413
  H        15.1435071666       -0.8219278929        2.6872393078
  H        15.1453937362        0.8207866349        2.6868610068
  H        16.8044212099       -2.2246428409        0.0000067166
  H        16.8044980502        2.2246507118        0.0001087906
  H        12.0999645555       -0.8315101469       -2.6728748323
  H        12.0912391310        0.8205764365       -2.6646499392
  H        12.0900957535       -0.8218443866        2.6644258971
  H        12.0990313653        0.8314188236        2.6717650544
  H        13.7428222360       -2.2282858414        0.0015696215
  H        13.7426485954        2.2289819913       -0.0010300153
  H         9.1669716472       -0.8147810945       -2.8356856047
  H         9.1667924126        0.8195059860       -2.8352235385
  H         9.1667576413       -0.8194993227        2.8351918091
  H         9.1667704068        0.8148053877        2.8356890390
  H        10.7867367038       -2.2600297320       -0.0010821917
  H        10.7866638258        2.2608869491       -0.0007513811
  H         6.2351166411       -0.8265494930       -2.6773530879
  H         6.2447750054        0.8197000357       -2.6711540048
  H         6.2434225891       -0.8154342964        2.6705335027
  H         6.2338526289        0.8227007272        2.6770857390
  H         7.5489209150       -2.2769310473        0.0007994478
  H         7.5488323922        2.2760253856        0.0010763212
  H         3.1871261541       -0.8191017975       -2.6858518124
  H         3.1888183029        0.8204509430       -2.6862474373
  H         3.1892162676       -0.8203552527        2.6861883934
  H         3.1875365834        0.8188997082        2.6857371122
  H         4.5928965132       -2.2237917983        0.0010284452
  H         4.5926869287        2.2229129912       -0.0015831600
  H         0.0553689051       -0.8181995452       -2.7000914638
  H         0.0552955417        0.8183264190       -2.7001283952
  H         0.0555693590       -0.8188391649        2.7000459684
  H         0.0556153772        0.8186741705        2.7000521325
  H         1.5305692515       -2.2100316676       -0.0001140095
  H         1.5306912533        2.2101573058        0.0000465655
      77
 i =        3, E =     -1335.5547472865
 Fe        18.3213970028       -0.0001394546        0.0002550957
 Fe        15.2541422227        0.0010846328       -0.0003916372
 Fe        12.2113920666        0.0009125950        0.0043888309
 Fe         9.1769537487       -0.0000488076        0.0005625916
 Fe         6.1516703318        0.0006540156        0.0029974187
 Fe         3.0823377067       -0.0009668356        0.0006419848
 Fe         0.0388521410        0.0004791581        0.0011454134
  O        18.3078326494       -0.0000589447        2.1360210185
  O        18.3071867043        0.0001222718       -2.1358024599
  O        19.8793544831       -1.2156388947       -0.0002189112
  O        19.8790544755        1.2159466923       -0.0001636625
  O        15.2988062928       -0.0013465901        2.1433859624
  O        15.3002695219        0.0014035682       -2.1437395469
  O        16.8192532079       -1.2220346913       -0.0004251973
  O        16.8199853728        1.2219085347        0.0023476016
  O        12.2892269833        0.0078410872        2.1451825575
  O        12.2894135082       -0.0084004467       -2.1454562076
  O        13.7762062902       -1.2369820867        0.0006313371
  O        13.7742174669        1.2390899238        0.0027094346
  O         9.1685443652       -0.0016229255        2.2610711841
  O         9.1661663120        0.0016918946       -2.2609742285
  O        10.8195887651       -1.2758512323        0.0163301214
  O        10.8189083327        1.2760271766       -0.0168574134
  O         6.0543034681        0.0059215457        2.1468255899
  O         6.0554949196       -0.0059562213       -2.1408271226
  O         7.5322841311       -1.2794113005        0.0155185942
  O         7.5332450159        1.2792263793       -0.0171322154
  O         3.0093257864       -0.0012939764        2.1425349031
  O         3.0103123969        0.0012885918       -2.1422445445
  O         4.5586427900       -1.2298081672       -0.0036138542
  O         4.5559413046        1.2291272194       -0.0011792758
  O        -0.0297997820       -0.0001526597        2.1409777413
  O        -0.0312216861        0.0001367424       -2.1399803615
  O         1.5436329732       -1.2273546750       -0.0018154119
  O         1.5443866857        1.2274530116        0.0001306229
  H        18.2767400953       -0.8155875882       -2.7028046339
  H        18.2763476111        0.8157465447       -2.7028816900
  H        18.2767547082       -0.8157005131        2.7030278038
  H        18.2770519267        0.8155934620        2.7030425730
  H        19.8570027359       -2.2102960739        0.0000284834
  H        19.8571166861        2.2105828463       -0.0000011656
  H        15.1422199778       -0.8139363642       -2.6904723489
  H        15.1401978225        0.8157322400       -2.6911278706
  H        15.1408990027       -0.8156620860        2.6914186256
  H        15.1429253125        0.8139687771        2.6907378920
  H        16.8027363368       -2.2148171357       -0.0000313824
  H        16.8025211649        2.2145888916        0.0000948380
  H        12.0969865402       -0.8270601475       -2.6765320413
  H        12.0878146040        0.8143382847       -2.6682894583
  H        12.0867766629       -0.8145811221        2.6681018757
  H        12.0961010954        0.8260434652        2.6766895211
  H        13.7442856005       -2.2269575286        0.0014291104
  H        13.7447619466        2.2289838159       -0.0013070633
  H         9.1679944795       -0.8111631865       -2.8352909603
  H         9.1676458364        0.8161381303       -2.8330991596
  H         9.1669377560       -0.8161787098        2.8329991660
  H         9.1670452270        0.8112669038        2.8352872107
  H        10.7900018305       -2.2658768699        0.0001266676
  H        10.7891519968        2.2661613714       -0.0024172670
  H         6.2359419475       -0.8210613192       -2.6815436333
  H         6.2461120147        0.8126871295       -2.6736379502
  H         6.2451539420       -0.8171525849        2.6723078821
  H         6.2349875392        0.8259814434        2.6794328605
  H         7.5513948348       -2.2701188711        0.0030380259
  H         7.5502572018        2.2698422969       -0.0002675077
  H         3.1883748329       -0.8119623796       -2.6875499273
  H         3.1902115712        0.8136470741       -2.6881342498
  H         3.1910090079       -0.8136966495        2.6878099496
  H         3.1892680259        0.8119414701        2.6873104453
  H         4.5930467202       -2.2195565809        0.0015122726
  H         4.5938073636        2.2187072529       -0.0012849840
  H         0.0574463600       -0.8146244468       -2.7034618269
  H         0.0573733762        0.8148232400       -2.7035522444
  H         0.0577909307       -0.8152692331        2.7038295616
  H         0.0578305587        0.8150256496        2.7037568436
  H         1.5325176660       -2.2175724121       -0.0001310450
  H         1.5323256102        2.2177573684        0.0001044062
      77
 i =        4, E =     -1335.5565516718
 Fe        18.3308005737        0.0002275013        0.0001507177
 Fe        15.2641984957        0.0000596737        0.0000748967
 Fe        12.1917737999        0.0005743353        0.0018173212
 Fe         9.1745012030        0.0001675897       -0.0001440331
 Fe         6.1635693256       -0.0004028928       -0.0004736642
 Fe         3.0739514605        0.0001705055       -0.0006373496
 Fe         0.0120538145       -0.0002351483        0.0005630070
  O        18.3058061782       -0.0001577937        2.1353765901
  O        18.3056424559        0.0002042543       -2.1351208958
  O        19.8667694352       -1.2267695618        0.0001793720
  O        19.8670502729        1.2270967313        0.0002353749
  O        15.3003730391       -0.0018829501        2.1449966147
  O        15.3027886184        0.0022626385       -2.1446050678
  O        16.8279153099       -1.2269133530       -0.0006674188
  O        16.8272811678        1.2265640237        0.0029076910
  O        12.2921458338        0.0083233697        2.1459252134
  O        12.2930689075       -0.0085183810       -2.1463240260
  O        13.7746744515       -1.2343080234        0.0019195893
  O        13.7749820897        1.2371985551        0.0038464993
  O         9.1731269502       -0.0010557623        2.2595813170
  O         9.1770113666        0.0011963913       -2.2596704123
  O        10.8098276962       -1.2877438655        0.0152686875
  O        10.8097045415        1.2874711553       -0.0127482136
  O         6.0529713841        0.0065951632        2.1464383569
  O         6.0519204004       -0.0066535692       -2.1474856407
  O         7.5349322740       -1.2893322271        0.0119204057
  O         7.5347062985        1.2893140480       -0.0114159683
  O         3.0137491249       -0.0015995699        2.1410876255
  O         3.0129759935        0.0013402387       -2.1420043211
  O         4.5626835149       -1.2285114178       -0.0039416122
  O         4.5637083391        1.2266719024       -0.0012588315
  O        -0.0307394961       -0.0001701357        2.1392577447
  O        -0.0311352516        0.0002494299       -2.1392780751
  O         1.5134353906       -1.2220675356       -0.0041209900
  O         1.5126649789        1.2212876472        0.0010654311
  H        18.2763370346       -0.8097129452       -2.7017475704
  H        18.2759863759        0.8099539719       -2.7019261675
  H        18.2763267632       -0.8099322790        2.7021579548
  H        18.2766058560        0.8097398438        2.7020271392
  H        19.8611783594       -2.2123994188       -0.0000787065
  H        19.8609895335        2.2127676971       -0.0000744925
  H        15.1416555143       -0.8064609090       -2.6912906878
  H        15.1394781843        0.8092926666       -2.6927516387
  H        15.1401441002       -0.8095479970        2.6929695140
  H        15.1423412255        0.8070258712        2.6920690270
  H        16.8018233041       -2.2131476117       -0.0000752868
  H        16.8020374005        2.2127761834        0.0002789583
  H        12.0937136848       -0.8150054569       -2.6822770975
  H        12.0838930263        0.8011047597       -2.6744469628
  H        12.0832269880       -0.8013595977        2.6742362055
  H        12.0931776784        0.8142007020        2.6830327167
  H        13.7454975413       -2.2201556677        0.0013924907
  H        13.7457917664        2.2230200319       -0.0013354534
  H         9.1681911351       -0.8062055433       -2.8322116129
  H         9.1678587605        0.8112858582       -2.8284940453
  H         9.1670459249       -0.8110920277        2.8285322354
  H         9.1671336299        0.8061654677        2.8323965429
  H        10.7920960791       -2.2707008677        0.0014797939
  H        10.7911041393        2.2704721509       -0.0041155428
  H         6.2387015078       -0.8153112158       -2.6851027551
  H         6.2494991579        0.8054529149       -2.6767802578
  H         6.2489168305       -0.8042934380        2.6776831279
  H         6.2382116590        0.8144781328        2.6853181304
  H         7.5526738172       -2.2725609620        0.0042555385
  H         7.5520100865        2.2725485310       -0.0021240974
  H         3.1881310156       -0.8066029826       -2.6863291016
  H         3.1900354299        0.8085194875       -2.6867688350
  H         3.1906318467       -0.8082086858        2.6867317059
  H         3.1888163255        0.8060695112        2.6858903894
  H         4.5929075761       -2.2142351696        0.0011359828
  H         4.5930596105        2.2124687041       -0.0016376572
  H         0.0568520015       -0.8091819752       -2.7015352009
  H         0.0567813950        0.8094834453       -2.7017887294
  H         0.0572437621       -0.8089647195        2.7023633529
  H         0.0573051826        0.8086750488        2.7023113295
  H         1.5360281540       -2.2079549513       -0.0003973001
  H         1.5363476994        2.2072302849       -0.0000251655
      77
 i =        5, E =     -1335.5573204578
 Fe        18.3400857866       -0.0008438277       -0.0001012596
 Fe        15.2627609046        0.0009449881        0.0006971772
 Fe        12.1855799553        0.0003136771        0.0008721444
 Fe         9.1725150721       -0.0001271914       -0.0000051568
 Fe         6.1555314257        0.0039599158        0.0058627311
 Fe         3.0770066136       -0.0011720248       -0.0013043096
 Fe        -0.0039381999        0.0004541633       -0.0004684619
  O        18.3106279297       -0.0002491635        2.1352796673
  O        18.3106105708        0.0003560297       -2.1351036005
  O        19.8604737648       -1.2347496232        0.0004533074
  O        19.8594448088        1.2347453246        0.0004786199
  O        15.3048178517       -0.0027551329        2.1470933052
  O        15.3083133277        0.0032548477       -2.1467332924
  O        16.8207723035       -1.2236208509       -0.0012801220
  O        16.8219214353        1.2236620598        0.0040793759
  O        12.2877414070        0.0091235343        2.1488400963
  O        12.2890503874       -0.0092345256       -2.1487130606
  O        13.7769744537       -1.2317400767        0.0028531862
  O        13.7766627271        1.2349452467        0.0043815734
  O         9.1657980228       -0.0006003766        2.2561886546
  O         9.1591471745        0.0009427905       -2.2561782521
  O        10.8046417660       -1.2850384435        0.0149897011
  O        10.8046227633        1.2849721082       -0.0125552987
  O         6.0514160436        0.0071633811        2.1506581830
  O         6.0522928618       -0.0072276576       -2.1475375411
  O         7.5307699509       -1.2829650664        0.0116426133
  O         7.5340157203        1.2848934421       -0.0112759613
  O         3.0086683076       -0.0019750748        2.1429810757
  O         3.0082530369        0.0017614956       -2.1438112592
  O         4.5629051964       -1.2298190097       -0.0043168460
  O         4.5602955420        1.2292758074       -0.0017801325
  O        -0.0338829681       -0.0003563971        2.1393724921
  O        -0.0342222720        0.0003817239       -2.1397150720
  O         1.5127059085       -1.2188049421       -0.0051149919
  O         1.5135497444        1.2176888578        0.0018335689
  H        18.2751654085       -0.8112011177       -2.6999224700
  H        18.2748545664        0.8115864402       -2.7003105334
  H        18.2751371212       -0.8115220344        2.7004685414
  H        18.2753825078        0.8112345320        2.7002364989
  H        19.8619327226       -2.2200214837       -0.0001386854
  H        19.8619512314        2.2200589850       -0.0000656177
  H        15.1406172065       -0.8078949596       -2.6896502861
  H        15.1381278180        0.8121046376       -2.6917412547
  H        15.1385735423       -0.8121698496        2.6921869397
  H        15.1410487164        0.8084872025        2.6906655048
  H        16.8031661653       -2.2104939986       -0.0000693001
  H        16.8032173522        2.2105249110        0.0005102853
  H        12.0926215807       -0.8187074039       -2.6823138571
  H        12.0822572681        0.8031664313       -2.6745082789
  H        12.0819023831       -0.8039107342        2.6741878666
  H        12.0924501294        0.8184623830        2.6831278465
  H        13.7465818945       -2.2177595246        0.0015688980
  H        13.7469951256        2.2208662206       -0.0011313885
  H         9.1684284714       -0.8076246137       -2.8281551695
  H         9.1682223087        0.8129753710       -2.8233033698
  H         9.1673489213       -0.8128148015        2.8231355825
  H         9.1673085804        0.8078448455        2.8283335391
  H        10.7928657730       -2.2688097003        0.0027853719
  H        10.7919303403        2.2688448058       -0.0051313200
  H         6.2399149502       -0.8165326216       -2.6853227997
  H         6.2511876908        0.8052260990       -2.6770509651
  H         6.2510428986       -0.8059811102        2.6781953070
  H         6.2398521970        0.8175490086        2.6858399018
  H         7.5534195234       -2.2671060092        0.0051630357
  H         7.5528636346        2.2687496408       -0.0032398943
  H         3.1892692889       -0.8087908378       -2.6840728605
  H         3.1913869669        0.8111707540       -2.6849325826
  H         3.1918166427       -0.8111543654        2.6845566592
  H         3.1897808092        0.8084909893        2.6835021307
  H         4.5927212523       -2.2155054011        0.0008208311
  H         4.5930983001        2.2146603195       -0.0017959371
  H         0.0570275383       -0.8110721178       -2.6996742240
  H         0.0568619940        0.8115071464       -2.7000937236
  H         0.0571706896       -0.8111389274        2.7004067905
  H         0.0573163858        0.8106896826        2.7000772634
  H         1.5351424231       -2.2059931484       -0.0007595644
  H         1.5351146026        2.2049981553       -0.0000130565
      77
 i =        6, E =     -1335.5563965873
 Fe        18.3455754485        0.0074754494        0.0011581955
 Fe        15.2579354550        0.0007919403        0.0020788826
 Fe        12.1665497496       -0.0000311841       -0.0021398647
 Fe         9.1687462503        0.0005539193        0.0001254944
 Fe         6.1570014535       -0.0002489890       -0.0033991868
 Fe         3.0884821730       -0.0002677963       -0.0027441942
 Fe         0.0102955338       -0.0040742634        0.0029338387
  O        18.3170912960       -0.0005181861        2.1344446332
  O        18.3172186994        0.0006250488       -2.1332570696
  O        19.8603456188       -1.2334504369        0.0007605304
  O        19.8672479358        1.2349734961        0.0007397180
  O        15.3145247574       -0.0043545292        2.1484053026
  O        15.3195044916        0.0051641105       -2.1476721774
  O        16.8095332525       -1.2199145911       -0.0024018861
  O        16.8057053115        1.2235475221        0.0057950630
  O        12.2806079552        0.0106590467        2.1501171074
  O        12.2816447036       -0.0108051633       -2.1506709249
  O        13.7750841522       -1.2241384454        0.0043960284
  O        13.7753227629        1.2281330626        0.0050877392
  O         9.1678569364        0.0002065048        2.2467172589
  O         9.1676613898        0.0006674705       -2.2457412746
  O        10.7935036049       -1.2808439490        0.0142105013
  O        10.7933325075        1.2802192009       -0.0135927858
  O         6.0479449490        0.0086000368        2.1486138683
  O         6.0487918841       -0.0079416772       -2.1522942202
  O         7.5358410694       -1.2762843708        0.0139874177
  O         7.5341978270        1.2773817789       -0.0105695577
  O         3.0023104424       -0.0028208443        2.1440758723
  O         3.0019529381        0.0024519779       -2.1451623555
  O         4.5653414448       -1.2292264966       -0.0040164530
  O         4.5670104593        1.2275124971       -0.0019545483
  O        -0.0386073174       -0.0006860430        2.1390040705
  O        -0.0388106668        0.0007038608       -2.1363129780
  O         1.5341820393       -1.2225083087       -0.0067873940
  O         1.5319390758        1.2199855208        0.0029531893
  H        18.2723378514       -0.8143476820       -2.6974797163
  H        18.2721238346        0.8149888376       -2.6981737848
  H        18.2723426513       -0.8154932559        2.6984549631
  H        18.2725049233        0.8149137487        2.6978627235
  H        19.8623362097       -2.2232462331       -0.0001907440
  H        19.8622301397        2.2244929185        0.0000210272
  H        15.1387657002       -0.8105232936       -2.6863144548
  H        15.1356169188        0.8174012459       -2.6896285220
  H        15.1355474327       -0.8172890694        2.6903992298
  H        15.1386012371        0.8113720783        2.6879038335
  H        16.8055292853       -2.2102615341       -0.0000623630
  H        16.8057754424        2.2132295199        0.0009878996
  H        12.0916260992       -0.8274126646       -2.6814746809
  H        12.0803982716        0.8086625304       -2.6735262635
  H        12.0803041642       -0.8091903926        2.6729620186
  H        12.0918088590        0.8269787042        2.6820123727
  H        13.7489017488       -2.2129499887        0.0019833833
  H        13.7490107079        2.2169387986       -0.0006641755
  H         9.1680828744       -0.8098202039       -2.8204724578
  H         9.1681464531        0.8158051801       -2.8138042349
  H         9.1677825964       -0.8157930765        2.8136557151
  H         9.1675496515        0.8108360565        2.8211005049
  H        10.7932832173       -2.2681438188        0.0050513846
  H        10.7925718390        2.2674669114       -0.0067048856
  H         6.2425361471       -0.8234317029       -2.6840897809
  H         6.2546912344        0.8096371080       -2.6766918804
  H         6.2542913047       -0.8067041022        2.6771272005
  H         6.2423800754        0.8210509017        2.6854089322
  H         7.5532461583       -2.2633584738        0.0063578173
  H         7.5538635311        2.2645013317       -0.0052436887
  H         3.1918610030       -0.8131645329       -2.6809271045
  H         3.1943835471        0.8163833637       -2.6823225849
  H         3.1943372890       -0.8167071761        2.6817011544
  H         3.1917863569        0.8129619177        2.6799999361
  H         4.5923659360       -2.2169936047        0.0000621269
  H         4.5916362998        2.2154606011       -0.0022534628
  H         0.0579168864       -0.8135565091       -2.6966101616