 DBCSR| Multiplication driver                                               BLAS
 DBCSR| Multrec recursion limit                                              512
 DBCSR| Multiplication stack size                                           1000
 DBCSR| Maximum elements for images                                    UNLIMITED
 DBCSR| Multiplicative factor virtual images                                   1
 DBCSR| Multiplication size stacks                                             3
 DBCSR| Number of 3D layers                                               SINGLE
 DBCSR| Use MPI memory allocation                                              T
 DBCSR| Use RMA algorithm                                                      F
 DBCSR| Use Communication thread                                               T
 DBCSR| Communication thread load                                             87


  **** **** ******  **  PROGRAM STARTED AT               2019-07-25 13:12:51.864
 ***** ** ***  *** **   PROGRAM STARTED ON        cpn-p28-42.cbls.ccr.buffalo.ed
 **    ****   ******    PROGRAM STARTED BY                              pavankum
 ***** **    ** ** **   PROGRAM PROCESS ID                                 91814
  **** **  *******  **  PROGRAM STARTED IN /projects/academic/mdupuis2/pavan/VAB
                                           _calculation/results_for_paper/2.Zn2+
                                           /gapw_all_elec/r_9

 CP2K| version string:                                          CP2K version 6.1
 CP2K| source code revision number:                                    svn:18464
 CP2K| cp2kflags: libint fftw3 libxc parallel mpi3 scalapack libderiv_max_am1=5 
 CP2K|            libint_max_am=6
 CP2K| is freely available from                            https://www.cp2k.org/
 CP2K| Program compiled at                          Fri Nov 30 14:17:09 EST 2018
 CP2K| Program compiled on                       srv-p22-12.cbls.ccr.buffalo.edu
 CP2K| Program compiled for                                                local
 CP2K| Data directory path    /projects/academic/mdupuis2/pavan/cp2k/cp2k-6.1/da
 CP2K| Input file name                                                 input.inp

 GLOBAL| Force Environment number                                              3
 GLOBAL| Basis set file name                                           BASIS_SET
 GLOBAL| Potential file name                                           POTENTIAL
 GLOBAL| MM Potential file name                                     MM_POTENTIAL
 GLOBAL| Coordinate file name                                     ./geometry.xyz
 GLOBAL| Force Environment number                                              1
 GLOBAL| Basis set file name            /projects/academic/mdupuis2/pavan/cp2k/c
 GLOBAL| Potential file name            /projects/academic/mdupuis2/pavan/cp2k/c
 GLOBAL| MM Potential file name                                     MM_POTENTIAL
 GLOBAL| Coordinate file name                                       ./state0.xyz
 GLOBAL| Force Environment number                                              2
 GLOBAL| Basis set file name            /projects/academic/mdupuis2/pavan/cp2k/c
 GLOBAL| Potential file name            /projects/academic/mdupuis2/pavan/cp2k/c
 GLOBAL| MM Potential file name                                     MM_POTENTIAL
 GLOBAL| Coordinate file name                                       ./state1.xyz
 GLOBAL| Method name                                                        CP2K
 GLOBAL| Project name                                                      p_zn_
 GLOBAL| Preferred FFT library                                             FFTW3
 GLOBAL| Preferred diagonalization lib.                                       SL
 GLOBAL| Run type                                                         ENERGY
 GLOBAL| All-to-all communication in single precision                          F
 GLOBAL| FFTs using library dependent lengths                                  T
 GLOBAL| Global print level                                               MEDIUM
 GLOBAL| Total number of message passing processes                            16
 GLOBAL| Number of threads for this process                                    1
 GLOBAL| This output is from process                                           0
 GLOBAL| CPU model name :  Intel(R) Xeon(R) CPU E5-2650 v3 @ 2.30GHz

 MEMORY| system memory details [Kb]
 MEMORY|                        rank 0           min           max       average
 MEMORY| MemTotal            131740876     131740876     131740876     131740876
 MEMORY| MemFree             127445920     127445920     127445920     127445920
 MEMORY| Buffers                347452        347452        347452        347452
 MEMORY| Cached                 633852        633852        633852        633852
 MEMORY| Slab                   318276        318276        318276        318276
 MEMORY| SReclaimable           158684        158684        158684        158684
 MEMORY| MemLikelyFree       128585908     128585908     128585908     128585908


 *** Fundamental physical constants (SI units) ***

 *** Literature: B. J. Mohr and B. N. Taylor,
 ***             CODATA recommended values of the fundamental physical
 ***             constants: 2006, Web Version 5.1
 ***             http://physics.nist.gov/constants

 Speed of light in vacuum [m/s]                             2.99792458000000E+08
 Magnetic constant or permeability of vacuum [N/A**2]       1.25663706143592E-06
 Electric constant or permittivity of vacuum [F/m]          8.85418781762039E-12
 Planck constant (h) [J*s]                                  6.62606896000000E-34
 Planck constant (h-bar) [J*s]                              1.05457162825177E-34
 Elementary charge [C]                                      1.60217648700000E-19
 Electron mass [kg]                                         9.10938215000000E-31
 Electron g factor [ ]                                     -2.00231930436220E+00
 Proton mass [kg]                                           1.67262163700000E-27
 Fine-structure constant                                    7.29735253760000E-03
 Rydberg constant [1/m]                                     1.09737315685270E+07
 Avogadro constant [1/mol]                                  6.02214179000000E+23
 Boltzmann constant [J/K]                                   1.38065040000000E-23
 Atomic mass unit [kg]                                      1.66053878200000E-27
 Bohr radius [m]                                            5.29177208590000E-11

 *** Conversion factors ***

 [u] -> [a.u.]                                              1.82288848426455E+03
 [Angstrom] -> [Bohr] = [a.u.]                              1.88972613288564E+00
 [a.u.] = [Bohr] -> [Angstrom]                              5.29177208590000E-01
 [a.u.] -> [s]                                              2.41888432650478E-17
 [a.u.] -> [fs]                                             2.41888432650478E-02
 [a.u.] -> [J]                                              4.35974393937059E-18
 [a.u.] -> [N]                                              8.23872205491840E-08
 [a.u.] -> [K]                                              3.15774647902944E+05
 [a.u.] -> [kJ/mol]                                         2.62549961709828E+03
 [a.u.] -> [kcal/mol]                                       6.27509468713739E+02
 [a.u.] -> [Pa]                                             2.94210107994716E+13
 [a.u.] -> [bar]                                            2.94210107994716E+08
 [a.u.] -> [atm]                                            2.90362800883016E+08
 [a.u.] -> [eV]                                             2.72113838565563E+01
 [a.u.] -> [Hz]                                             6.57968392072181E+15
 [a.u.] -> [1/cm] (wave numbers)                            2.19474631370540E+05
 [a.u./Bohr**2] -> [1/cm]                                   5.14048714338585E+03
 
 MIXED_ENV| Number of created MPI groups:                                      1
 MIXED_ENV| Task to group correspondence:
  (   0 :    0)  (   1 :    0)  (   2 :    0)  (   3 :    0)
  (   4 :    0)  (   5 :    0)  (   6 :    0)  (   7 :    0)
  (   8 :    0)  (   9 :    0)  (  10 :    0)  (  11 :    0)
  (  12 :    0)  (  13 :    0)  (  14 :    0)  (  15 :    0)
          ----------------------------------------------------------------------
 COLVARS| COLVAR INPUT INDEX:        1
 COLVARS| ENERGY          >>> ATOMS:                                        all!
          ----------------------------------------------------------------------

 CELL_TOP| Volume [angstrom^3]:                                         8000.000
 CELL_TOP| Vector a [angstrom    20.000     0.000     0.000    |a| =      20.000
 CELL_TOP| Vector b [angstrom     0.000    20.000     0.000    |b| =      20.000
 CELL_TOP| Vector c [angstrom     0.000     0.000    20.000    |c| =      20.000
 CELL_TOP| Angle (b,c), alpha [degree]:                                   90.000
 CELL_TOP| Angle (a,c), beta  [degree]:                                   90.000
 CELL_TOP| Angle (a,b), gamma [degree]:                                   90.000
 CELL_TOP| Numerically orthorhombic:                                         YES

 GENERATE|  Preliminary Number of Bonds generated:                             0
 GENERATE|  Achieved consistency in connectivity generation.

 CELL| Volume [angstrom^3]:                                             8000.000
 CELL| Vector a [angstrom]:      20.000     0.000     0.000    |a| =      20.000
 CELL| Vector b [angstrom]:       0.000    20.000     0.000    |b| =      20.000
 CELL| Vector c [angstrom]:       0.000     0.000    20.000    |c| =      20.000
 CELL| Angle (b,c), alpha [degree]:                                       90.000
 CELL| Angle (a,c), beta  [degree]:                                       90.000
 CELL| Angle (a,b), gamma [degree]:                                       90.000
 CELL| Numerically orthorhombic:                                             YES

 CELL_REF| Volume [angstrom^3]:                                         8000.000
 CELL_REF| Vector a [angstrom    20.000     0.000     0.000    |a| =      20.000
 CELL_REF| Vector b [angstrom     0.000    20.000     0.000    |b| =      20.000
 CELL_REF| Vector c [angstrom     0.000     0.000    20.000    |c| =      20.000
 CELL_REF| Angle (b,c), alpha [degree]:                                   90.000
 CELL_REF| Angle (a,c), beta  [degree]:                                   90.000
 CELL_REF| Angle (a,b), gamma [degree]:                                   90.000
 CELL_REF| Numerically orthorhombic:                                         YES


 MOLECULE KIND INFORMATION


 All atoms are their own molecule, skipping detailed information

 *** WARNING in force_env_methods.F:1097 :: ASSERTION (cond) failed at   ***
 *** line   1098 Error (0.185707E-11) in computing numerical derivatives ***
 *** larger then(0.100000E-11) .                                         ***


 *** WARNING in force_env_methods.F:1097 :: ASSERTION (cond) failed at   ***
 *** line   1098 Error (0.185707E-11) in computing numerical derivatives ***
 *** larger then(0.100000E-11) .                                         ***

 nspins, nimgs, gapw_xc           2           1 F 

 ####### CHECKS ON A and B #######
  E_A before:  -3554.5434218572241     
  E_B before:  -3554.5434218632727     
 ####### - #######
##Inside build_kohn_sham_matrix() before doing any function calls
 i). ELECTRON ONLY CALLS
 1. Electron_pw   1203.0689248004323     
 2. Electron_1c   391.68531333465342     
 ########## After 1st poisson call pure hartree  (sum of above two quantities) ##########   1594.7542381350859     
 ########################
ii). NUCLEAR ONLY CALLS
 1. Nuclear_pw   1883.7107329814608     
 2. Nuclear_1c  -337.35001003422531     
iii). REGULAR CALL (ELECTRON+NUCLEAR)
 1. Hartree_pw   135.81299662668377     
 2. Hartree_1c   75.114944200829356     
 Regular: Before call to qs_vxc Regular_exc, exc1   0.0000000000000000        0.0000000000000000     
 Regular: After call to qs_vxc_create Regular_exc, exc1   0.0000000000000000        0.0000000000000000     
 iv). EXCHANGE ENERGY   -139.04308501146119     
 v). POTENTIAL ENERGY FROM CORE HAMILTONIAN   -5687.3342677443316     
 vi). KINETIC ENERGY    3554.3490053445289     
 vii). SELF ENERGY   -1493.4430152734726     
      
 E_NUC is    52.917707673762834     
      
IN build_kohn_sham_matrix() CALLING qs_ks_atom(),updates single atom contributions due to gapw
Inside build_kohn_sham_matrix() after doing all function calls and evaluating energy
 CHECK ON A IS DONE, E_A after passing modified PA_hat density:  -3554.5434218572232     
##Inside build_kohn_sham_matrix() before doing any function calls
 i). ELECTRON ONLY CALLS
 1. Electron_pw   1203.0689245511689     
 2. Electron_1c   391.68531334130887     
 ########## After 1st poisson call pure hartree  (sum of above two quantities) ##########   1594.7542378924777     
 ########################
ii). NUCLEAR ONLY CALLS
 1. Nuclear_pw   1883.7107329814608     
 2. Nuclear_1c  -337.35001003422531     
iii). REGULAR CALL (ELECTRON+NUCLEAR)
 1. Hartree_pw   135.81299662591607     
 2. Hartree_1c   75.114944201029175     
 Regular: Before call to qs_vxc Regular_exc, exc1   0.0000000000000000        0.0000000000000000     
 Regular: After call to qs_vxc_create Regular_exc, exc1   0.0000000000000000        0.0000000000000000     
 iv). EXCHANGE ENERGY   -139.04308500727649     
 v). POTENTIAL ENERGY FROM CORE HAMILTONIAN   -5687.3342677249329     
 vi). KINETIC ENERGY    3554.3490053154619     
 vii). SELF ENERGY   -1493.4430152734726     
      
 E_NUC is    52.917707673762834     
      
IN build_kohn_sham_matrix() CALLING qs_ks_atom(),updates single atom contributions due to gapw
Inside build_kohn_sham_matrix() after doing all function calls and evaluating energy
 CHECK ON B IS DONE, E_B after passing modified PB_hat density:  -3554.5434218632749     
 DOING ANTI-SYMMETRIC PART OF VAB
##Inside build_kohn_sham_matrix() before doing any function calls
 i). ELECTRON ONLY CALLS
 1. Electron_pw   1.0705234411550096E-009
 2. Electron_1c  -2.0329074506896954E-044
 ########## After 1st poisson call pure hartree  (sum of above two quantities) ##########   1.0705234411550096E-009
 ########################
ii). NUCLEAR ONLY CALLS
 1. Nuclear_pw   1883.7107329814608     
 2. Nuclear_1c  -337.35001003422531     
iii). REGULAR CALL (ELECTRON+NUCLEAR)
 1. Hartree_pw   1883.7101006265129     
 2. Hartree_1c  -337.35001003422531     
 Regular: Before call to qs_vxc Regular_exc, exc1   0.0000000000000000        0.0000000000000000     
 Regular: After call to qs_vxc_create Regular_exc, exc1   0.0000000000000000        0.0000000000000000     
 iv). EXCHANGE ENERGY   -1.4140981109440787E-002
 v). POTENTIAL ENERGY FROM CORE HAMILTONIAN   -6.7762635780344027E-021
 vi). KINETIC ENERGY   -3.8738792866287606E-005
 vii). SELF ENERGY   -1493.4430152734726     
      
 E_NUC is    52.917707673762834     
      
IN build_kohn_sham_matrix() CALLING qs_ks_atom(),updates single atom contributions due to gapw
Inside build_kohn_sham_matrix() after doing all function calls and evaluating energy
 DOING SYMMETRIC PART OF VAB
##Inside build_kohn_sham_matrix() before doing any function calls
 i). ELECTRON ONLY CALLS
 1. Electron_pw   9.7524159736344981E-003
 2. Electron_1c   3.1775201500454800E-003
 ########## After 1st poisson call pure hartree  (sum of above two quantities) ##########   1.2929936123679979E-002
 ########################
 ehartree, ehartree_1c after multiplying with DTPROD/DHPROD  -3.4240241629444284       -1.1156113317368928     
 dtprod, dhprod are  -1.0000000000000255        2.8482322289596030E-003
 J2_AB is   -4.5396354946813204     
ii). NUCLEAR ONLY CALLS
 1. Nuclear_pw   1883.7107329814608     
 2. Nuclear_1c  -337.35001003422531     
iii). REGULAR CALL (ELECTRON+NUCLEAR)
 1. Hartree_pw   1875.3181400072772     
 2. Hartree_1c  -337.28777851735225     
 Regular: Before call to qs_vxc Regular_exc, exc1   0.0000000000000000        0.0000000000000000     
 Regular: After call to qs_vxc_create Regular_exc, exc1   0.0000000000000000        0.0000000000000000     
 iv). EXCHANGE ENERGY   -1.5268284940170547E-002
 v). POTENTIAL ENERGY FROM CORE HAMILTONIAN   -16.198450129134010     
 vi). KINETIC ENERGY    10.122979444489552     
 vii). SELF ENERGY   -1493.4430152734726     
      
 E_NUC is    52.917707673762834     
      
IN build_kohn_sham_matrix() CALLING qs_ks_atom(),updates single atom contributions due to gapw
 ########################
 #########  ET  #########
 ------------------------
 E_NUC   52.917707673762834     
 HAA <a|H|a>  -3607.4611295309860     
 HBB <b|H|b>  -3607.4611295370387     
             
 <a|H1|b>   14.418762078079231     
 <a|H2|b>  -4.1438447936044041     
 ...<a|J2|b>  -4.5396354946813204     
 ...<a|K2|b>  0.39579070107691638     
 HAB <a|H|b>   10.274917284474828     
 SAB  -2.8482322289596759E-003
 VAB   3.0231107530542598E-005
  VAB in different units 
 ------------------------
          8.2263027142242433E-004 eV
          6.6349611811889933      1/cm
          1.8970306225118701E-002 kcal/mol
          7.9371761245896649E-002 kJ/mol
          198911132124.32312      Hertz
 ------------------------
 ------------------------
 E+  -3607.4610919648412     
 E-  -3607.4611669309747     
 (E+ - E-)/2   3.7483066638336559E-005
          1.0199661144166554E-003 eV
          8.2265822330863028      1/cm
          2.3520979231984249E-002 kcal/mol
          9.8411777106622106E-002 kJ/mol
          246626730859.60712      Hertz
 ------------------------
 ------------------------
Inside build_kohn_sham_matrix() after doing all function calls and evaluating energy
 NO FORCE_EVAL section calculated the dipole

 ENERGY| Total FORCE_EVAL ( MIXED ) energy (a.u.):             0.000000006048595


 -------------------------------------------------------------------------------
 -                                                                             -
 -                                DBCSR STATISTICS                             -
 -                                                                             -
 -------------------------------------------------------------------------------
 COUNTER                                    TOTAL       BLAS       SMM       ACC
 flops    24 x    29 x    24               267264     100.0%      0.0%      0.0%
 flops    24 x    24 x    29              4008960     100.0%      0.0%      0.0%
 flops    24 x    24 x    30              4147200     100.0%      0.0%      0.0%
 flops inhomo. stacks                           0       0.0%      0.0%      0.0%
 flops total                         8.423424E+06     100.0%      0.0%      0.0%
 flops max/rank                      2.852352E+06     100.0%      0.0%      0.0%
 matmuls inhomo. stacks                         0       0.0%      0.0%      0.0%
 matmuls total                                248     100.0%      0.0%      0.0%
 number of processed stacks                   248     100.0%      0.0%      0.0%
 average stack size                                     1.0       0.0       0.0
 marketing flops                    11.142144E+06
 -------------------------------------------------------------------------------
 # multiplications                             82
 max memory usage/rank             692.277248E+06
 # max total images/rank                        1
 # max 3D layers                                1
 # MPI messages exchanged                    7872
 MPI messages size (bytes):
  total size                         5.614848E+06
  min size                           0.000000E+00
  max size                           5.760000E+03
  average size                     713.268311E+00
 MPI breakdown and total messages size (bytes):
             size <=      128                6876                        0
       128 < size <=     8192                 996                  5614848
      8192 < size <=    32768                   0                        0
     32768 < size <=   131072                   0                        0
    131072 < size <=  4194304                   0                        0
   4194304 < size <= 16777216                   0                        0
  16777216 < size                               0                        0
 -------------------------------------------------------------------------------

 MEMORY| Estimated peak process memory [MiB]                                 662

 -------------------------------------------------------------------------------
 -                                                                             -
 -                         MESSAGE PASSING PERFORMANCE                         -
 -                                                                             -
 -------------------------------------------------------------------------------

 ROUTINE             CALLS      AVE VOLUME [Bytes]
 MP_Group              171
 MP_Bcast              653                 998280.
 MP_Allreduce         2498                  42476.
 MP_Sync               491
 MP_Alltoall          4114                5320150.
 MP_ISendRecv         7860                  78496.
 MP_Wait             22054
 MP_comm_split          81
 MP_ISend            10232                 523477.
 MP_IRecv            10232                 523220.
 MP_Recv                12                   3072.
 MP_Memory            3272
 -------------------------------------------------------------------------------


 -------------------------------------------------------------------------------
 -                                                                             -
 -                           R E F E R E N C E S                               -
 -                                                                             -
 -------------------------------------------------------------------------------
 
 CP2K version 6.1, the CP2K developers group (2018).
 CP2K is freely available from https://www.cp2k.org/ .

 Schuett, Ole; Messmer, Peter; Hutter, Juerg; VandeVondele, Joost. 
 Electronic Structure Calculations on Graphics Processing Units, John Wiley & Sons, Ltd, 173-190 (2016). 
 GPU-Accelerated Sparse Matrix-Matrix Multiplication for Linear Scaling Density Functional Theory.
 http://dx.doi.org/10.1002/9781118670712.ch8


 Borstnik, U; VandeVondele, J; Weber, V; Hutter, J. 
 PARALLEL COMPUTING, 40 (5-6), 47-58 (2014). 
 Sparse matrix multiplication: The distributed block-compressed sparse
 row library.
 http://dx.doi.org/10.1016/j.parco.2014.03.012


 Hutter, J; Iannuzzi, M; Schiffmann, F; VandeVondele, J. 
 WILEY INTERDISCIPLINARY REVIEWS-COMPUTATIONAL MOLECULAR SCIENCE, 4 (1), 15-25 (2014). 
 CP2K: atomistic simulations of condensed matter systems.
 http://dx.doi.org/10.1002/wcms.1159


 Guidon, M; Hutter, J; VandeVondele, J. 
 JOURNAL OF CHEMICAL THEORY AND COMPUTATION, 5 (11), 3010-3021 (2009). 
 Robust Periodic Hartree-Fock Exchange for Large-Scale Simulations Using
 Gaussian Basis Sets.
 http://dx.doi.org/10.1021/ct900494g


 Guidon, M; Schiffmann, F; Hutter, J; VandeVondele, J. 
 JOURNAL OF CHEMICAL PHYSICS, 128 (21), 214104 (2008). 
 Ab initio molecular dynamics using hybrid density functionals.
 http://dx.doi.org/10.1063/1.2931945


 Genovese, L; Deutsch, T; Goedecker, S. 
 JOURNAL OF CHEMICAL PHYSICS, 127 (5), 054704 (2007). 
 Efficient and accurate three-dimensional Poisson solver for surface
 problems.
 http://dx.doi.org/10.1063/1.2754685


 Genovese, L; Deutsch, T; Neelov, A; Goedecker, S; Beylkin, G. 
 JOURNAL OF CHEMICAL PHYSICS, 125 (7), 074105 (2006). 
 Efficient solution of Poisson's equation with free boundary conditions.
 http://dx.doi.org/10.1063/1.2335442


 Frigo, M; Johnson, SG. 
 PROCEEDINGS OF THE IEEE, 93 (2), 216-231 (2005). 
 The design and implementation of FFTW3.
 http://dx.doi.org/10.1109/JPROC.2004.840301


 Lippert, G; Hutter, J; Parrinello, M. 
 THEORETICAL CHEMISTRY ACCOUNTS, 103 (2), 124-140 (1999). 
 The Gaussian and augmented-plane-wave density functional method for ab
 initio molecular dynamics simulations.
 http://dx.doi.org/10.1007/s002140050523


 Krack, M; Parrinello, M. 
 PHYSICAL CHEMISTRY CHEMICAL PHYSICS, 2 (10), 2105-2112 (2000). 
 All-electron ab-initio molecular dynamics.
 http://dx.doi.org/10.1039/b001167n


 -------------------------------------------------------------------------------
 -                                                                             -
 -                                T I M I N G                                  -
 -                                                                             -
 -------------------------------------------------------------------------------
 SUBROUTINE                       CALLS  ASD         SELF TIME        TOTAL TIME
                                MAXIMUM       AVERAGE  MAXIMUM  AVERAGE  MAXIMUM
 CP2K                                 1  1.0    0.046    0.058  243.720  243.720
 qs_ks_update_qs_env                 44  4.7    0.001    0.001  216.034  216.040
 rebuild_ks_matrix                   44  5.7    0.000    0.000  216.030  216.037
 qs_ks_build_kohn_sham_matrix        44  6.7    0.014    0.017  216.030  216.037
 qs_energies                          2  2.0    0.000    0.000  210.158  210.160
 scf_env_do_scf                       2  3.0    0.000    0.000  208.629  208.632
 scf_env_do_scf_inner_loop           40  4.0    0.002    0.003  208.629  208.631
 prepare_gapw_den                    52  7.3    0.006    0.007  141.501  141.755
 calculate_rho_atom                  96  8.5   30.179  133.687   30.180  133.706
 mp_sum_dv                          109  8.2  103.207  110.510  103.207  110.510
 pw_transfer                       1028  9.0    0.046    0.054   45.330   46.836
 fft_wrap_pw1pw2                    976 10.0    0.008    0.009   45.184   46.675
 fft_wrap_pw1pw2_140                460 10.6    2.576    3.107   42.226   44.438
 fft3d_ps                           976 12.0   23.549   25.520   36.223   36.876
 qs_rho_update_rho                   46  4.7    0.000    0.001   26.051   26.051
 calculate_rho_elec                  92  5.7    0.342    0.580   25.984   25.984
 density_rs2pw                       92  6.7    0.005    0.005   24.355   24.764
 pw_poisson_solve                    52  7.3    0.735    0.855   23.673   23.682
 hfx_ks_matrix                       44  7.7    0.001    0.001   17.113   17.115
 integrate_four_center               44  8.7    0.016    0.018   17.112   17.112
 mp_sum_d                          1321  5.8   12.705   15.514   12.705   15.514
 rs_pw_transfer                     790  9.2    0.010    0.013   14.165   14.478
 sum_up_and_integrate                40  8.0    0.000    0.001   13.401   13.497
 integrate_v_rspace                  80  9.0    0.071    0.266   13.400   13.497
 potential_pw2rs                     80 10.0    0.013    0.014   13.316   13.355
 Vh_1c_gg_integrals                  52  7.3    1.103   12.547   12.730   13.244
 mp_alltoall_z22v                   976 14.0    5.606   10.658    5.606   10.658
 ps_wavelet_solve                    52  8.3    8.782    9.401   10.150   10.232
 yz_to_x                            552 12.4    3.698    4.925    7.222    9.265
 powell_optimize                2309856 11.0    8.384    8.534    8.384    8.534
 calc_pair_dist_radii                 2 10.0    3.809    3.848    7.889    7.990
 put_rho0_on_grid                    52  8.3    0.149    0.158    7.324    7.577
 calc_screening_functions             2 10.0    2.803    2.855    7.107    7.259
 mp_waitany                        8920 11.2    3.629    6.886    3.629    6.886
 rs_pw_transfer_RS2PW_140           146  9.3    3.836    4.603    5.976    6.498
 rs_pw_transfer_PW2RS_140           128 11.1    3.433    4.117    5.477    5.980
 x_to_yz                            424 13.7    3.355    4.165    5.437    5.909
 -------------------------------------------------------------------------------

 The number of warnings for this run is : 4
 
 -------------------------------------------------------------------------------
  **** **** ******  **  PROGRAM ENDED AT                 2019-07-25 13:16:55.776
 ***** ** ***  *** **   PROGRAM RAN ON            cpn-p28-42.cbls.ccr.buffalo.ed
 **    ****   ******    PROGRAM RAN BY                                  pavankum
 ***** **    ** ** **   PROGRAM PROCESS ID                                 91814
  **** **  *******  **  PROGRAM STOPPED IN /projects/academic/mdupuis2/pavan/VAB
                                           _calculation/results_for_paper/2.Zn2+
                                           /gapw_all_elec/r_9
