     270
 i =       16, E =     -8111.7786037437
 Ti        -0.0011021214        0.0019786823        0.0027368015
 Ti         2.3135806866        2.3092264503        1.4903828542
 Ti         4.6314434480        0.0084380483        0.0012177772
 Ti         6.9345438302        2.3115395678        1.4722178076
 Ti         9.2466557860       -0.0002627652       -0.0010076537
 Ti        11.5554273529        2.3136995537        1.4904807933
 Ti         0.0014832358        4.6213910108        0.0026875360
 Ti         2.3122741767        6.9338068862        1.4901512960
 Ti         4.6227424670        4.6236515865       -0.0010083981
 Ti         6.9367014024        6.9324258585        1.4904817298
 Ti         9.2377555968        4.6147536352        0.0013337782
 Ti        11.5548281002        6.9318249492        1.4893439959
 Ti         0.0000879554        9.2460847417        0.0009886349
 Ti         2.3142932097       11.5602915526        1.4893224209
 Ti         4.6249763266        9.2448936455        0.0027384368
 Ti         6.9322296035       11.5595791435        1.4903835009
 Ti         9.2443993439        9.2474796179        0.0026909169
 Ti        11.5568085921       11.5582711285        1.4901509621
 Ti         0.0009184895       -0.0002235806        2.9784464899
 Ti         2.3141496373        2.3088045362        4.4675742378
 Ti         4.6329185286        0.0099176389        2.9781112625
 Ti         6.9345407901        2.3115361708        4.4767554587
 Ti         9.2434108778        0.0023902853        2.9785455117
 Ti        11.5548926372        2.3141553259        4.4675000252
 Ti        -0.0008185988        4.6232139849        2.9783765558
 Ti         2.3125875102        6.9334558860        4.4670531022
 Ti         4.6253923017        4.6204092588        2.9785459086
 Ti         6.9371578363        6.9318921205        4.4675001699
 Ti         9.2361805212        4.6131794437        2.9781967966
 Ti        11.5542889498        6.9312863117        4.4687367203
 Ti         0.0000917618        9.2460911901        2.9782067042
 Ti         2.3148628847       11.5608604967        4.4687636819
 Ti         4.6227804891        9.2469188733        2.9784471202
 Ti         6.9318075601       11.5601467073        4.4675754609
 Ti         9.2462134271        9.2451815890        2.9783777601
 Ti        11.5564579747       11.5585838232        4.4670540316
 Ti        -0.0014477943        0.0026811868        5.9588731253
 Ti         2.3159177811        2.3064930234        7.4521300161
 Ti         4.6312419814        0.0082351784        5.9588941554
 Ti         6.9346738031        2.3116601266        7.4794069973
 Ti         9.2470149590       -0.0004096219        5.9619836324
 Ti        11.5540611306        2.3174858784        7.4520769373
 Ti         0.0018440349        4.6207132536        5.9588739390
 Ti         2.3140081735        6.9326499804        7.4521186263
 Ti         4.6225976768        4.6240111018        5.9619828552
 Ti         6.9404880617        6.9310626491        7.4520747639
 Ti         9.2379658157        4.6149642192        5.9589122910
 Ti        11.5542550994        6.9312343573        7.4555389894
 Ti         0.0001255890        9.2461223311        5.9601357657
 Ti         2.3149739925       11.5609730222        7.4555368264
 Ti         4.6256800225        9.2445480793        5.9588727847
 Ti         6.9295111203       11.5618920431        7.4521262332
 Ti         9.2437220926        9.2478395691        5.9588728283
 Ti        11.5556595810       11.5600057767        7.4521178774
 Ti         0.0004658933       -0.0006983556        8.9464333759
 Ti         2.3097894236        2.3125737069       10.4410238438
 Ti         4.6361351148        0.0130982624        8.9459273266
 Ti         6.9348769436        2.3118620160       10.4314635667
 Ti         9.2422183848        0.0056981899        8.9521577115
 Ti        11.5610489205        2.3122708560       10.4410288803
 Ti         0.0013104231        4.6254358191        8.9465840066
 Ti         2.3124918446        6.9356175076       10.4408602186
 Ti         4.6287044872        4.6192077016        8.9521592500
 Ti         6.9352636845        6.9380443899       10.4410282275
 Ti         9.2333459311        4.6103456909        8.9458930970
 Ti        11.5500145899        6.9269853904       10.4417048304
 Ti         0.0001295714        9.2461236145        8.9477589552
 Ti         2.3192754861       11.5652759862       10.4416877023
 Ti         4.6223082241        9.2464729890        8.9464314665
 Ti         6.9356212573       11.5557617694       10.4410216098
 Ti         9.2484579889        9.2472795725        8.9465796310
 Ti        11.5586129360       11.5584718716       10.4408599133
 Ti         0.0000849356       -0.0009030126       11.9334987906
 Ti         2.3155815329        2.3071535012       13.4217151998
 Ti         4.6384184297        0.0153863508       11.9325441745
 Ti         6.9346969298        2.3116847058       13.3801020878
 Ti         9.2423513687        0.0054628167       11.9257454893
 Ti        11.5541535639        2.3165855965       13.4218125477
 Ti         0.0016337853        4.6255895034       11.9334563463
 Ti         2.3137313329        6.9329324005       13.4217006924
 Ti         4.6284669918        4.6193410563       11.9257454618
 Ti         6.9395875914        6.9311543580       13.4218144212
 Ti         9.2310412217        4.6080404820       11.9325998683
 Ti        11.5534148805        6.9303951709       13.4185930546
 Ti         0.0001230540        9.2461173995       11.9316565528
 Ti         2.3157488993       11.5617492762       13.4185719096
 Ti         4.6221017915        9.2460911463       11.9335000188
 Ti         6.9301688296       11.5615599723       13.4217192707
 Ti         9.2486090882        9.2476061665       11.9334599379
 Ti        11.5559420684       11.5597293112       13.4217019519
  O         1.4076434055        1.4101349056       -0.0001716646
  O         3.2125148062        3.2132783155       -0.0010612631
  O         0.9025638253        3.7210117788        1.4858848130
  O         3.7188901443        0.9026801852        1.4861884306
  O         6.0294949873        1.4064925583        0.0079758925
  O         7.8396353497        3.2166332838        0.0080100841
  O         5.5228060792        3.7232336662        1.4856795431
  O         8.3462344450        0.8998055335        1.4856796664
  O        10.6565767939        1.4098158493       -0.0010984303
  O        12.4614692690        3.2129387627       -0.0001403551
  O        10.1501526887        3.7203695783        1.4861773955
  O        12.9664758613        0.9020478861        1.4858497191
  O         1.4095571181        6.0322386463       -0.0009018586
  O         3.2138372879        7.8365222331       -0.0008662303
  O         0.9027218668        8.3433094372        1.4859588300
  O         3.7196294469        5.5264183118        1.4853818391
  O         6.0328159553        6.0335751649       -0.0010993305
  O         7.8359392714        7.8384674829       -0.0001411269
  O         5.5250480101        8.3434747435        1.4858491737
  O         8.3433700878        5.5271517492        1.4861772428
  O        10.6568678284        6.0338663121        0.0003460618
  O        12.4603085874        7.8373067662       -0.0008661059
  O        10.1468117520        8.3451900776        1.4858657334
  O        12.9681916260        5.5238101552        1.4858661921
  O         1.4087232931       10.6547227000       -0.0008803801
  O         3.2121926335       12.4581926798        0.0003161292
  O         0.9008615125       12.9682414337        1.4858366561
  O         3.7222412556       10.1468612102        1.4858359939
  O         6.0331365235       10.6536405508       -0.0001719438
  O         7.8362801072       12.4585124696       -0.0010618586
  O         5.5256806325       12.9648896738        1.4861890466
  O         8.3440129996       10.1485627282        1.4858839939
  O        10.6552401761       10.6555559445       -0.0009017590
  O        12.4595237054       12.4598368797       -0.0008663579
  O        10.1494199604       12.9656284623        1.4853824330
  O        12.9663104247       10.1487208957        1.4859588290
  O         1.4083023449        1.4097477392        2.9725597221
  O         3.2125618793        3.2131989956        2.9725100908
  O         0.9023760812        3.7214508652        4.4614853630
  O         3.7184284835        0.9026183566        4.4582433507
  O         6.0306989587        1.4076984667        2.9713790585
  O         7.8383530164        3.2153522451        2.9713854682
  O         5.5222956667        3.7237368893        4.4590988729
  O         8.3467377257        0.8992954876        4.4590974056
  O        10.6564741018        1.4098437810        2.9724900893
  O        12.4607481142        3.2133016244        2.9725273292
  O        10.1506303155        3.7204518911        4.4582086935
  O        12.9666754592        0.9016313465        4.4613601083
  O         1.4094699171        6.0325582818        2.9730591767
  O         3.2134563802        7.8365527129        2.9730664007
  O         0.9025930230        8.3434238720        4.4616703331
  O         3.7191883914        5.5268481357        4.4596341700
  O         6.0328435753        6.0334724475        2.9724893397
  O         7.8363016400        7.8377467309        2.9725266935
  O         5.5246312029        8.3436738667        4.4613581346
  O         8.3434526430        5.5276287965        4.4582085036
  O        10.6563075706        6.0333063713        2.9727397602
  O        12.4602659737        7.8372646617        2.9726101921
  O        10.1467181890        8.3455887420        4.4617490235
  O        12.9685908856        5.5237158734        4.4617514235
  O         1.4087471566       10.6547471097        2.9725757080
  O         3.2127411080       12.4587410807        2.9727027584
  O         0.9004883251       12.9683421104        4.4616086871
  O         3.7223412773       10.1464881412        4.4616070233
  O         6.0327478263       10.6543012075        2.9725584607
  O         7.8362002777       12.4585617143        2.9725088468
  O         5.5256182425       12.9644287260        4.4582423946
  O         8.3444524061       10.1483750515        4.4614831860
  O        10.6555596182       10.6554695034        2.9730588492
  O        12.4595544251       12.4594566284        2.9730663009
  O        10.1498500059       12.9651874676        4.4596323479
  O        12.9664249909       10.1485919840        4.4616699744
  O         1.4064105697        1.4104401793        5.9500236156
  O         3.2110917420        3.2133381108        5.9510615339
  O         0.9014469525        3.7203708219        7.4500850899
  O         3.7079805021        0.8978882679        7.4311523658
  O         6.0291299895        1.4061275200        5.9362275734
  O         7.8399886628        3.2169870702        5.9362258321
  O         5.5199382786        3.7261725132        7.4361048449
  O         8.3491786559        0.8969369759        7.4360981128
  O        10.6579835251        1.4097638678        5.9509382126
  O        12.4628044135        3.2127418904        5.9498297010
  O        10.1614401674        3.7254335980        7.4309611649
  O        12.9678807230        0.9029205215        7.4494506164
  O         1.4093528817        6.0323164930        5.9530597053
  O         3.2136887991        7.8366410188        5.9530331434
  O         0.9027889377        8.3432212842        7.4477377497
  O         3.7173370183        5.5287406913        7.4418448945
  O         6.0327632710        6.0349805326        5.9509388918
  O         7.8357427096        7.8398010743        5.9498268965
  O         5.5259218855        8.3448804153        7.4494448923
  O         8.3484345812        5.5384372087        7.4309616523
  O        10.6580155424        6.0350133285        5.9486765983
  O        12.4606461830        7.8376439337        5.9522558164
  O        10.1466036529        8.3453661142        7.4488669158
  O        12.9683697057        5.5236010743        7.4488694083
  O         1.4083729514       10.6543726895        5.9521049307
  O         3.2111104126       12.4571111291        5.9485603629
  O         0.9008280339       12.9685773503        7.4483271232
  O         3.7225780250       10.1468280495        7.4483224900
  O         6.0334411427       10.6524074124        5.9500174238
  O         7.8363403507       12.4570900822        5.9510577453
  O         5.5208858284       12.9539695577        7.4311485758
  O         8.3433721982       10.1474422393        7.4500753987
  O        10.6553195599       10.6553518179        5.9530580381
  O        12.4596440471       12.4596890559        5.9530331287
  O        10.1517459763       12.9633364303        7.4418404163
  O        12.9662238173       10.1487878804        7.4477384716
  O         1.4093441495        1.4092803748        8.9488467167
  O         3.2130463399        3.2123831990        8.9393054629
  O         0.9035612328        3.7211984094       10.4401993553
  O         3.7242172484        0.9050959580       10.4354230353
  O         5.9963400229        1.3733027476        8.8546924745
  O         7.8732640607        3.2502521693        8.8543423270
  O         5.5049131434        3.7421235215       10.4342733521
  O         8.3651355910        0.8819054616       10.4342706359
  O        10.6562393891        1.4108239459        8.9381918170
  O        12.4598749502        3.2138552060        8.9489294503
  O        10.1450454833        3.7180967506       10.4352341855
  O        12.9657174404        0.9020922646       10.4399107937
  O         1.4089738539        6.0326792187        8.9464165961
  O         3.2135133922        7.8372722322        8.9458576949
  O         0.9023247499        8.3439589544       10.4400205645
  O         3.7145722061        5.5322489736       10.4374227929
  O         6.0338243661        6.0332369568        8.9381881436
  O         7.8368568988        7.8368723982        8.9489281421
  O         5.5250927653        8.3427158268       10.4399083294
  O         8.3410955611        5.5220424136       10.4352334844
  O        10.6596563131        6.0366532146        8.9404846723
  O        12.4612343850        7.8382305147        8.9447205839
  O        10.1465131176        8.3451445518       10.4403378280
  O        12.9681476314        5.5235106072       10.4403402114
  O         1.4078662593       10.6538649881        8.9442883576
  O         3.2094914444       12.4554886384        8.9403496832
  O         0.9010215007       12.9686890002       10.4400821147
  O         3.7226904516       10.1470206376       10.4400802350
  O         6.0322844830       10.6553387127        8.9488445553
  O         7.8353885715       12.4590410717        8.9392903571
  O         5.5281008797       12.9702083584       10.4354202990
  O         8.3442020753       10.1495594418       10.4401968876
  O        10.6556816119       10.6549698158        8.9464121554
  O        12.4602733905       12.4595119644        8.9458613635
  O        10.1552501689       12.9605649186       10.4374211739
  O        12.9669595234       10.1483214403       10.4400204518
  O         1.4095489074        1.4096697084       11.9284904234
  O         3.2129684375        3.2125068176       11.9309343672
  O         0.9018940299        3.7206640441       13.4185338929
  O         3.7108423360        0.8987525353       13.4248907478
  O         5.9986668763        1.3756255562       11.9990962581
  O         7.8709913179        3.2479766890       11.9992574640
  O         5.5210006769        3.7251944097       13.4205186442
  O         8.3481998185        0.8979977555       13.4205213598
  O        10.6563066786        1.4107371080       11.9309722995
  O        12.4596137396        3.2134582846       11.9283321063
  O        10.1584350079        3.7244492230       13.4249193195
  O        12.9672914153        0.9025274729       13.4184942996
  O         1.4092305733        6.0327468657       11.9308413486
  O         3.2134507646        7.8370305288       11.9308844778
  O         0.9026550090        8.3434385409       13.4191931371
  O         3.7187190312        5.5275027513       13.4192303188
  O         6.0337380049        6.0333052241       11.9309715575
  O         7.8364598147        7.8366113613       11.9283303968
  O         5.5255285434        8.3442909364       13.4184932004
  O         8.3474490097        5.5354326124       13.4249182475
  O        10.6596430624        6.0366407425       11.9307990446
  O        12.4608160659        7.8378129029       11.9304909846
  O        10.1466412019        8.3452927130       13.4189122030
  O        12.9682952976        5.5236391964       13.4189128621
  O         1.4082806197       10.6542798484       11.9304236724
  O         3.2094554809       12.4554525344       11.9307211728
  O         0.9008236899       12.9684901886       13.4188630751
  O         3.7224912279       10.1468232363       13.4188622123
  O         6.0326738276       10.6555447387       11.9284872690
  O         7.8355110585       12.4589641784       11.9309333831
  O         5.5217526905       12.9568312922       13.4248941138
  O         8.3436657334       10.1478909817       13.4185327401
  O        10.6557489736       10.6552264820       11.9308414170
  O        12.4600309237       12.4594490037       11.9308843313
  O        10.1505058420       12.9647169817       13.4192301330
  O        12.9664401578       10.1486538823       13.4191930563
