 DBCSR| Multiplication driver                                               BLAS
 DBCSR| Multrec recursion limit                                              512
 DBCSR| Multiplication stack size                                           1000
 DBCSR| Maximum elements for images                                    UNLIMITED
 DBCSR| Multiplicative factor virtual images                                   1
 DBCSR| Multiplication size stacks                                             3
 DBCSR| Number of 3D layers                                               SINGLE
 DBCSR| Use MPI memory allocation                                              T
 DBCSR| Use RMA algorithm                                                      F
 DBCSR| Use Communication thread                                               T
 DBCSR| Communication thread load                                             87


  **** **** ******  **  PROGRAM STARTED AT               2019-07-13 09:01:03.854
 ***** ** ***  *** **   PROGRAM STARTED ON        cpn-u26-16.cbls.ccr.buffalo.ed
 **    ****   ******    PROGRAM STARTED BY                              pavankum
 ***** **    ** ** **   PROGRAM PROCESS ID                                 93951
  **** **  *******  **  PROGRAM STARTED IN /projects/academic/mdupuis2/pavan/VAB
                                           _calculation/23.Fe_clust_paper/7units
                                           _dzv/GPW/largecell/point_0.2

 CP2K| version string:                                          CP2K version 5.1
 CP2K| source code revision number:                                    svn:18091
 CP2K| cp2kflags: libint fftw3 libxc parallel mpi3 scalapack has_no_shared_glibc
 CP2K|             max_contr=4
 CP2K| is freely available from                            https://www.cp2k.org/
 CP2K| Program compiled at                          Wed Mar 21 12:31:25 EDT 2018
 CP2K| Program compiled on                       srv-k07-14.cbls.ccr.buffalo.edu
 CP2K| Program compiled for                                                local
 CP2K| Data directory path    /projects/academic/mdupuis2/pavan/cp2k/cp2k-5.1/da
 CP2K| Input file name                                                 input.inp

 GLOBAL| Force Environment number                                              1
 GLOBAL| Basis set file name            /projects/academic/mdupuis2/pavan/BASIS_
 GLOBAL| Potential file name            /projects/academic/mdupuis2/pavan/POTENT
 GLOBAL| MM Potential file name                                     MM_POTENTIAL
 GLOBAL| Coordinate file name                                   intermediate.xyz
 GLOBAL| Method name                                                        CP2K
 GLOBAL| Project name                                                      p_fe_
 GLOBAL| Preferred FFT library                                             FFTW3
 GLOBAL| Preferred diagonalization lib.                                       SL
 GLOBAL| Run type                                                         ENERGY
 GLOBAL| All-to-all communication in single precision                          F
 GLOBAL| FFTs using library dependent lengths                                  T
 GLOBAL| Global print level                                               MEDIUM
 GLOBAL| Total number of message passing processes                           144
 GLOBAL| Number of threads for this process                                    1
 GLOBAL| This output is from process                                           0
 GLOBAL| CPU model name :  Intel(R) Xeon(R) Gold 6126 CPU @ 2.60GHz

 MEMORY| system memory details [Kb]
 MEMORY|                        rank 0           min           max       average
 MEMORY| MemTotal            196307064     196307064     196307064     196307064
 MEMORY| MemFree             101703392      99759700     116076392     109732653
 MEMORY| Buffers                445340        445340        471780        461602
 MEMORY| Cached               87719640      73181924      89665820      79625732
 MEMORY| Slab                   973992        947824       1080524        981284
 MEMORY| SReclaimable           634180        615568        749892        648644
 MEMORY| MemLikelyFree       190502552     190363452     190566844     190468632


 *** Fundamental physical constants (SI units) ***

 *** Literature: B. J. Mohr and B. N. Taylor,
 ***             CODATA recommended values of the fundamental physical
 ***             constants: 2006, Web Version 5.1
 ***             http://physics.nist.gov/constants

 Speed of light in vacuum [m/s]                             2.99792458000000E+08
 Magnetic constant or permeability of vacuum [N/A**2]       1.25663706143592E-06
 Electric constant or permittivity of vacuum [F/m]          8.85418781762039E-12
 Planck constant (h) [J*s]                                  6.62606896000000E-34
 Planck constant (h-bar) [J*s]                              1.05457162825177E-34
 Elementary charge [C]                                      1.60217648700000E-19
 Electron mass [kg]                                         9.10938215000000E-31
 Electron g factor [ ]                                     -2.00231930436220E+00
 Proton mass [kg]                                           1.67262163700000E-27
 Fine-structure constant                                    7.29735253760000E-03
 Rydberg constant [1/m]                                     1.09737315685270E+07
 Avogadro constant [1/mol]                                  6.02214179000000E+23
 Boltzmann constant [J/K]                                   1.38065040000000E-23
 Atomic mass unit [kg]                                      1.66053878200000E-27
 Bohr radius [m]                                            5.29177208590000E-11

 *** Conversion factors ***

 [u] -> [a.u.]                                              1.82288848426455E+03
 [Angstrom] -> [Bohr] = [a.u.]                              1.88972613288564E+00
 [a.u.] = [Bohr] -> [Angstrom]                              5.29177208590000E-01
 [a.u.] -> [s]                                              2.41888432650478E-17
 [a.u.] -> [fs]                                             2.41888432650478E-02
 [a.u.] -> [J]                                              4.35974393937059E-18
 [a.u.] -> [N]                                              8.23872205491840E-08
 [a.u.] -> [K]                                              3.15774647902944E+05
 [a.u.] -> [kJ/mol]                                         2.62549961709828E+03
 [a.u.] -> [kcal/mol]                                       6.27509468713739E+02
 [a.u.] -> [Pa]                                             2.94210107994716E+13
 [a.u.] -> [bar]                                            2.94210107994716E+08
 [a.u.] -> [atm]                                            2.90362800883016E+08
 [a.u.] -> [eV]                                             2.72113838565563E+01
 [a.u.] -> [Hz]                                             6.57968392072181E+15
 [a.u.] -> [1/cm] (wave numbers)                            2.19474631370540E+05
 [a.u./Bohr**2] -> [1/cm]                                   5.14048714338585E+03
 

 CELL_TOP| Volume [angstrom^3]:                                        26196.625
 CELL_TOP| Vector a [angstrom    21.385     0.000     0.000    |a| =      21.385
 CELL_TOP| Vector b [angstrom     0.000    35.000     0.000    |b| =      35.000
 CELL_TOP| Vector c [angstrom     0.000     0.000    35.000    |c| =      35.000
 CELL_TOP| Angle (b,c), alpha [degree]:                                   90.000
 CELL_TOP| Angle (a,c), beta  [degree]:                                   90.000
 CELL_TOP| Angle (a,b), gamma [degree]:                                   90.000
 CELL_TOP| Numerically orthorhombic:                                         YES

 CELL| Volume [angstrom^3]:                                            26196.625
 CELL| Vector a [angstrom]:      21.385     0.000     0.000    |a| =      21.385
 CELL| Vector b [angstrom]:       0.000    35.000     0.000    |b| =      35.000
 CELL| Vector c [angstrom]:       0.000     0.000    35.000    |c| =      35.000
 CELL| Angle (b,c), alpha [degree]:                                       90.000
 CELL| Angle (a,c), beta  [degree]:                                       90.000
 CELL| Angle (a,b), gamma [degree]:                                       90.000
 CELL| Numerically orthorhombic:                                             YES

 CELL_REF| Volume [angstrom^3]:                                        26196.625
 CELL_REF| Vector a [angstrom    21.385     0.000     0.000    |a| =      21.385
 CELL_REF| Vector b [angstrom     0.000    35.000     0.000    |b| =      35.000
 CELL_REF| Vector c [angstrom     0.000     0.000    35.000    |c| =      35.000
 CELL_REF| Angle (b,c), alpha [degree]:                                   90.000
 CELL_REF| Angle (a,c), beta  [degree]:                                   90.000
 CELL_REF| Angle (a,b), gamma [degree]:                                   90.000
 CELL_REF| Numerically orthorhombic:                                         YES

 *******************************************************************************
 *******************************************************************************
 **                                                                           **
 **     #####                         ##              ##                      **
 **    ##   ##            ##          ##              ##                      **
 **   ##     ##                       ##            ######                    **
 **   ##     ##  ##   ##  ##   #####  ##  ##   ####   ##    #####    #####    **
 **   ##     ##  ##   ##  ##  ##      ## ##   ##      ##   ##   ##  ##   ##   **
 **   ##  ## ##  ##   ##  ##  ##      ####     ###    ##   ######   ######    **
 **    ##  ###   ##   ##  ##  ##      ## ##      ##   ##   ##       ##        **
 **     #######   #####   ##   #####  ##  ##  ####    ##    #####   ##        **
 **           ##                                                    ##        **
 **                                                                           **
 **                                                ... make the atoms dance   **
 **                                                                           **
 **            Copyright (C) by CP2K developers group (2000 - 2017)           **
 **                                                                           **
 *******************************************************************************

 DFT| Spin unrestricted (spin-polarized) Kohn-Sham calculation               UKS
 DFT| Multiplicity                                                            35
 DFT| Number of spin states                                                    2
 DFT| Charge                                                                   6
 DFT| Self-interaction correction (SIC)                                       NO
 DFT| Cutoffs: density                                              1.000000E-10
 DFT|          gradient                                             1.000000E-10
 DFT|          tau                                                  1.000000E-10
 DFT|          cutoff_smoothing_range                               0.000000E+00
 DFT| XC density smoothing                                                  NONE
 DFT| XC derivatives                                                          PW
 FUNCTIONAL| NO EXCHANGE-CORRELATION FUNCTIONAL USED.

 QS| Method:                                                                 GPW
 QS| Density plane wave grid type                        NON-SPHERICAL FULLSPACE
 QS| Number of grid levels:                                                    5
 QS| Density cutoff [a.u.]:                                                250.0
 QS| Multi grid cutoff [a.u.]: 1) grid level                               250.0
 QS|                           2) grid level                                83.3
 QS|                           3) grid level                                27.8
 QS|                           4) grid level                                 9.3
 QS|                           5) grid level                                 3.1
 QS| Grid level progression factor:                                          3.0
 QS| Relative density cutoff [a.u.]:                                        30.0
 QS| Consistent realspace mapping and integration 
 QS| Interaction thresholds: eps_pgf_orb:                                1.0E-10
 QS|                         eps_filter_matrix:                          0.0E+00
 QS|                         eps_core_charge:                            1.0E-14
 QS|                         eps_rho_gspace:                             1.0E-12
 QS|                         eps_rho_rspace:                             1.0E-12
 QS|                         eps_gvg_rspace:                             1.0E-06
 QS|                         eps_ppl:                                    1.0E-02
 QS|                         eps_ppnl:                                   1.0E-08


 ATOMIC KIND INFORMATION

  1. Atomic kind: Fe                                    Number of atoms:       7

     Orbital Basis Set                                                   mod-DZV

       Number of orbital shell sets:                                           1
       Number of orbital shells:                                               7
       Number of primitive Cartesian functions:                                6
       Number of Cartesian basis functions:                                   21
       Number of spherical basis functions:                                   19
       Norm type:                                                              2

       Normalised Cartesian orbitals:

                        Set   Shell   Orbital            Exponent    Coefficient

                          1       1    2s                8.424366      -0.545589
                                                         4.825220      -0.832336
                                                         2.198939       0.958990
                                                         0.891661       0.416271
                                                         0.316231       0.012631
                                                         0.103474      -0.013505

                          1       2    3s                8.424366      -0.106056
                                                         4.825220      -0.104587
                                                         2.198939       0.052318
                                                         0.891661      -0.169042
                                                         0.316231       0.061854
                                                         0.103474       0.122891

                          1       3    4s                8.424366      -0.333477
                                                         4.825220      -0.289267
                                                         2.198939      -0.125861
                                                         0.891661      -1.004000
                                                         0.316231       0.780774
                                                         0.103474      -0.187846

                          1       4    3px               8.424366      -1.658234
                                                         4.825220       1.618912
                                                         2.198939       1.969078
                                                         0.891661       0.523780
                                                         0.316231       0.024574
                                                         0.103474      -0.000798
                          1       4    3py               8.424366      -1.658234
                                                         4.825220       1.618912
                                                         2.198939       1.969078
                                                         0.891661       0.523780
                                                         0.316231       0.024574
                                                         0.103474      -0.000798
                          1       4    3pz               8.424366      -1.658234
                                                         4.825220       1.618912
                                                         2.198939       1.969078
                                                         0.891661       0.523780
                                                         0.316231       0.024574
                                                         0.103474      -0.000798

                          1       5    4px               8.424366      -0.105249
                                                         4.825220      -0.126123
                                                         2.198939      -0.349657
                                                         0.891661      -0.133470
                                                         0.316231       0.170554
                                                         0.103474       0.054381
                          1       5    4py               8.424366      -0.105249
                                                         4.825220      -0.126123
                                                         2.198939      -0.349657
                                                         0.891661      -0.133470
                                                         0.316231       0.170554
                                                         0.103474       0.054381
                          1       5    4pz               8.424366      -0.105249
                                                         4.825220      -0.126123
                                                         2.198939      -0.349657
                                                         0.891661      -0.133470
                                                         0.316231       0.170554
                                                         0.103474       0.054381

                          1       6    4dx2              8.424366       7.918298
                                                         4.825220       5.112663
                                                         2.198939       2.118663
                                                         0.891661       0.465004
                                                         0.316231       0.065856
                                                         0.103474       0.002769
                          1       6    4dxy              8.424366      13.714895
                                                         4.825220       8.855393
                                                         2.198939       3.669632
                                                         0.891661       0.805411
                                                         0.316231       0.114066
                                                         0.103474       0.004796
                          1       6    4dxz              8.424366      13.714895
                                                         4.825220       8.855393
                                                         2.198939       3.669632
                                                         0.891661       0.805411
                                                         0.316231       0.114066
                                                         0.103474       0.004796
                          1       6    4dy2              8.424366       7.918298
                                                         4.825220       5.112663
                                                         2.198939       2.118663
                                                         0.891661       0.465004
                                                         0.316231       0.065856
                                                         0.103474       0.002769
                          1       6    4dyz              8.424366      13.714895
                                                         4.825220       8.855393
                                                         2.198939       3.669632
                                                         0.891661       0.805411
                                                         0.316231       0.114066
                                                         0.103474       0.004796
                          1       6    4dz2              8.424366       7.918298
                                                         4.825220       5.112663
                                                         2.198939       2.118663
                                                         0.891661       0.465004
                                                         0.316231       0.065856
                                                         0.103474       0.002769

                          1       7    5dx2              8.424366      -4.223614
                                                         4.825220      -1.970584
                                                         2.198939      -1.543490
                                                         0.891661      -0.041381
                                                         0.316231       0.082821
                                                         0.103474       0.021964
                          1       7    5dxy              8.424366      -7.315513
                                                         4.825220      -3.413151
                                                         2.198939      -2.673404
                                                         0.891661      -0.071673
                                                         0.316231       0.143450
                                                         0.103474       0.038042
                          1       7    5dxz              8.424366      -7.315513
                                                         4.825220      -3.413151
                                                         2.198939      -2.673404
                                                         0.891661      -0.071673
                                                         0.316231       0.143450
                                                         0.103474       0.038042
                          1       7    5dy2              8.424366      -4.223614
                                                         4.825220      -1.970584
                                                         2.198939      -1.543490
                                                         0.891661      -0.041381
                                                         0.316231       0.082821
                                                         0.103474       0.021964
                          1       7    5dyz              8.424366      -7.315513
                                                         4.825220      -3.413151
                                                         2.198939      -2.673404
                                                         0.891661      -0.071673
                                                         0.316231       0.143450
                                                         0.103474       0.038042
                          1       7    5dz2              8.424366      -4.223614
                                                         4.825220      -1.970584
                                                         2.198939      -1.543490
                                                         0.891661      -0.041381
                                                         0.316231       0.082821
                                                         0.103474       0.021964

     GTH Potential information for                                  GTH-BLYP-q16

       Description:                       Goedecker-Teter-Hutter pseudopotential
                                           Goedecker et al., PRB 54, 1703 (1996)
                                          Hartwigsen et al., PRB 58, 3641 (1998)
                                                      Krack, TCA 114, 145 (2005)

       Gaussian exponent of the core charge distribution:               3.858025
       Electronic configuration (s p d ...):                           4   6   6

       Parameters of the local part of the GTH pseudopotential:

                          rloc        C1          C2          C3          C4
                        0.360000    7.011025   -0.222747

       Parameters of the non-local part of the GTH pseudopotential:

                   l      r(l)      h(i,j,l)

                   0    0.276205    0.611496    7.992357
                                    7.992357  -10.318089
                   1    0.247130   -8.710556    8.684169
                                    8.684169  -10.275248
                   2    0.223534  -12.411504

  2. Atomic kind: O                                     Number of atoms:      28

     Orbital Basis Set                                                   mod-DZV

       Number of orbital shell sets:                                           1
       Number of orbital shells:                                               4
       Number of primitive Cartesian functions:                                5
       Number of Cartesian basis functions:                                    8
       Number of spherical basis functions:                                    8
       Norm type:                                                              2

       Normalised Cartesian orbitals:

                        Set   Shell   Orbital            Exponent    Coefficient

                          1       1    2s               10.389228       0.396646
                                                         3.849621       0.208811
                                                         1.388401      -0.301641
                                                         0.496955      -0.274061
                                                         0.162492      -0.033677

                          1       2    3s               10.389228       0.303673
                                                         3.849621       0.240943
                                                         1.388401      -0.313066
                                                         0.496955      -0.043055
                                                         0.162492       0.213991

                          1       3    3px              10.389228      -1.530415
                                                         3.849621      -1.371928
                                                         1.388401      -0.761951
                                                         0.496955      -0.253695
                                                         0.162492      -0.035541
                          1       3    3py              10.389228      -1.530415
                                                         3.849621      -1.371928
                                                         1.388401      -0.761951
                                                         0.496955      -0.253695
                                                         0.162492      -0.035541
                          1       3    3pz              10.389228      -1.530415
                                                         3.849621      -1.371928
                                                         1.388401      -0.761951
                                                         0.496955      -0.253695
                                                         0.162492      -0.035541

                          1       4    4px              10.389228      -0.565392
                                                         3.849621      -0.038231
                                                         1.388401      -0.382373
                                                         0.496955       0.179070
                                                         0.162492       0.122714
                          1       4    4py              10.389228      -0.565392
                                                         3.849621      -0.038231
                                                         1.388401      -0.382373
                                                         0.496955       0.179070
                                                         0.162492       0.122714
                          1       4    4pz              10.389228      -0.565392
                                                         3.849621      -0.038231
                                                         1.388401      -0.382373
                                                         0.496955       0.179070
                                                         0.162492       0.122714

     GTH Potential information for                                   GTH-BLYP-q6

       Description:                       Goedecker-Teter-Hutter pseudopotential
                                           Goedecker et al., PRB 54, 1703 (1996)
                                          Hartwigsen et al., PRB 58, 3641 (1998)
                                                      Krack, TCA 114, 145 (2005)

       Gaussian exponent of the core charge distribution:               8.438331
       Electronic configuration (s p d ...):                               2   4

       Parameters of the local part of the GTH pseudopotential:

                          rloc        C1          C2          C3          C4
                        0.243420  -16.991892    2.566142

       Parameters of the non-local part of the GTH pseudopotential:

                   l      r(l)      h(i,j,l)

                   0    0.220831   18.388851
                   1    0.217201

  3. Atomic kind: H                                     Number of atoms:      42

     Orbital Basis Set                                                   mod-DZV

       Number of orbital shell sets:                                           1
       Number of orbital shells:                                               2
       Number of primitive Cartesian functions:                                5
       Number of Cartesian basis functions:                                    2
       Number of spherical basis functions:                                    2
       Norm type:                                                              2

       Normalised Cartesian orbitals:

                        Set   Shell   Orbital            Exponent    Coefficient

                          1       1    2s               10.068468      -0.133023
                                                         2.680223      -0.177618
                                                         0.791502      -0.258419
                                                         0.239116      -0.107525
                                                         0.082193      -0.014019

                          1       2    3s               10.068468       0.344673
                                                         2.680223       1.819821
                                                         0.791502      -0.999069
                                                         0.239116       0.017430
                                                         0.082193       0.082660

     GTH Potential information for                                   GTH-BLYP-q1

       Description:                       Goedecker-Teter-Hutter pseudopotential
                                           Goedecker et al., PRB 54, 1703 (1996)
                                          Hartwigsen et al., PRB 58, 3641 (1998)
                                                      Krack, TCA 114, 145 (2005)

       Gaussian exponent of the core charge distribution:              12.500000
       Electronic configuration (s p d ...):                                   1

       Parameters of the local part of the GTH pseudopotential:

                          rloc        C1          C2          C3          C4
                        0.200000   -4.195961    0.730498


 MOLECULE KIND INFORMATION


 All atoms are their own molecule, skipping detailed information


 TOTAL NUMBERS AND MAXIMUM NUMBERS

  Total number of            - Atomic kinds:                                   3
                             - Atoms:                                         77
                             - Shell sets:                                    77
                             - Shells:                                       245
                             - Primitive Cartesian functions:                392
                             - Cartesian basis functions:                    455
                             - Spherical basis functions:                    441

  Maximum angular momentum of- Orbital basis functions:                        2
                             - Local part of the GTH pseudopotential:          2
                             - Non-local part of the GTH pseudopotential:      3


 MODULE QUICKSTEP:  ATOMIC COORDINATES IN angstrom

  Atom  Kind  Element       X           Y           Z          Z(eff)       Mass

       1     1 Fe  26   18.336593    0.000002    0.000044     16.00      55.8450
       2     1 Fe  26   15.277142    0.000001    0.000086     16.00      55.8450
       3     1 Fe  26   12.213792   -0.000009    0.000031     16.00      55.8450
       4     1 Fe  26    9.147615   -0.000003   -0.000062     16.00      55.8450
       5     1 Fe  26    6.121498    0.000010    0.000088     16.00      55.8450
       6     1 Fe  26    3.085102    0.000004    0.000100     16.00      55.8450
       7     1 Fe  26    0.011791   -0.000004   -0.000015     16.00      55.8450
       8     2 O    8   18.333378    0.000003    2.143018      6.00      15.9994
       9     2 O    8   18.333309   -0.000000   -2.142983      6.00      15.9994
      10     2 O    8   19.854238   -1.261096   -0.000049      6.00      15.9994
      11     2 O    8   19.854241    1.261094   -0.000074      6.00      15.9994
      12     2 O    8   15.280761   -0.000048    2.144635      6.00      15.9994
      13     2 O    8   15.280703    0.000056   -2.144511      6.00      15.9994
      14     2 O    8   16.809850   -1.261018   -0.000017      6.00      15.9994
      15     2 O    8   16.809849    1.261022    0.000011      6.00      15.9994
      16     2 O    8   12.242030    0.000263    2.155237      6.00      15.9994
      17     2 O    8   12.242113   -0.000285   -2.155235      6.00      15.9994
      18     2 O    8   13.767687   -1.260564   -0.000033      6.00      15.9994
      19     2 O    8   13.767685    1.260550    0.000060      6.00      15.9994
      20     2 O    8    9.203260   -0.000706    2.196402      6.00      15.9994
      21     2 O    8    9.203297    0.000707   -2.196575      6.00      15.9994
      22     2 O    8   10.748059   -1.271468    0.000901      6.00      15.9994
      23     2 O    8   10.748064    1.271451   -0.001155      6.00      15.9994
      24     2 O    8    6.107981    0.000522    2.269134      6.00      15.9994
      25     2 O    8    6.107936   -0.000494   -2.268945      6.00      15.9994
      26     2 O    8    7.717364   -1.325201    0.000454      6.00      15.9994
      27     2 O    8    7.717379    1.325216   -0.000603      6.00      15.9994
      28     2 O    8    3.023793   -0.000181    2.168114      6.00      15.9994
      29     2 O    8    3.023952    0.000176   -2.167924      6.00      15.9994
      30     2 O    8    4.482989   -1.311609   -0.000394      6.00      15.9994
      31     2 O    8    4.482994    1.311630    0.000696      6.00      15.9994
      32     2 O    8   -0.006040    0.000018    2.149304      6.00      15.9994
      33     2 O    8   -0.006081   -0.000024   -2.149386      6.00      15.9994
      34     2 O    8    1.505486   -1.258583   -0.000070      6.00      15.9994
      35     2 O    8    1.505480    1.258575   -0.000055      6.00      15.9994
      36     3 H    1   18.359132   -0.794378   -2.689137      1.00       1.0079
      37     3 H    1   18.359066    0.794380   -2.689130      1.00       1.0079
      38     3 H    1   18.359182   -0.794401    2.689126      1.00       1.0079
      39     3 H    1   18.359265    0.794406    2.689129      1.00       1.0079
      40     3 H    1   19.866395   -2.221096   -0.000012      1.00       1.0079
      41     3 H    1   19.866401    2.221094   -0.000024      1.00       1.0079
      42     3 H    1   15.212738   -0.794173   -2.687400      1.00       1.0079
      43     3 H    1   15.212532    0.794236   -2.687410      1.00       1.0079
      44     3 H    1   15.212672   -0.794257    2.687503      1.00       1.0079
      45     3 H    1   15.212849    0.794208    2.687492      1.00       1.0079
      46     3 H    1   16.806857   -2.221187   -0.000001      1.00       1.0079
      47     3 H    1   16.806860    2.221193    0.000009      1.00       1.0079
      48     3 H    1   12.098565   -0.794215   -2.683974      1.00       1.0079
      49     3 H    1   12.097023    0.793693   -2.683368      1.00       1.0079
      50     3 H    1   12.096972   -0.793739    2.683332      1.00       1.0079
      51     3 H    1   12.098474    0.794240    2.683896      1.00       1.0079
      52     3 H    1   13.747049   -2.220172    0.000296      1.00       1.0079
      53     3 H    1   13.747016    2.220156   -0.000148      1.00       1.0079
      54     3 H    1    9.063473   -0.794863   -2.717668      1.00       1.0079
      55     3 H    1    9.064402    0.795882   -2.718561      1.00       1.0079
      56     3 H    1    9.064161   -0.795927    2.718288      1.00       1.0079
      57     3 H    1    9.063199    0.794896    2.717419      1.00       1.0079
      58     3 H    1   10.706454   -2.229144   -0.000709      1.00       1.0079
      59     3 H    1   10.706494    2.229128    0.000520      1.00       1.0079
      60     3 H    1    6.137731   -0.796119   -2.806860      1.00       1.0079
      61     3 H    1    6.139577    0.795309   -2.806006      1.00       1.0079
      62     3 H    1    6.139362   -0.795306    2.806175      1.00       1.0079
      63     3 H    1    6.137526    0.796148    2.807068      1.00       1.0079
      64     3 H    1    7.695410   -2.280759   -0.000385      1.00       1.0079
      65     3 H    1    7.695424    2.280775    0.000177      1.00       1.0079
      66     3 H    1    3.184731   -0.794924   -2.688876      1.00       1.0079
      67     3 H    1    3.184191    0.795251   -2.689117      1.00       1.0079
      68     3 H    1    3.183993   -0.795286    2.689276      1.00       1.0079
      69     3 H    1    3.184602    0.794946    2.689018      1.00       1.0079
      70     3 H    1    4.521083   -2.267698    0.000690      1.00       1.0079
      71     3 H    1    4.521041    2.267720   -0.000204      1.00       1.0079
      72     3 H    1    0.108128   -0.793871   -2.684816      1.00       1.0079
      73     3 H    1    0.108000    0.793850   -2.684803      1.00       1.0079
      74     3 H    1    0.108102   -0.793883    2.684662      1.00       1.0079
      75     3 H    1    0.108303    0.793888    2.684666      1.00       1.0079
      76     3 H    1    1.542881   -2.217136   -0.000231      1.00       1.0079
      77     3 H    1    1.542885    2.217126    0.000015      1.00       1.0079




 SCF PARAMETERS         Density guess:                                   RESTART
                        --------------------------------------------------------
                        max_scf:                                            1000
                        max_scf_history:                                       0
                        max_diis:                                              4
                        --------------------------------------------------------
                        eps_scf:                                        1.00E-06
                        eps_scf_history:                                0.00E+00
                        eps_diis:                                       1.00E-01
                        eps_eigval:                                     1.00E-05
                        --------------------------------------------------------
                        level_shift [a.u.]:                                 0.00
                        --------------------------------------------------------
                        Outer loop SCF in use 
                        No variables optimised in outer loop
                        eps_scf                                         1.00E-06
                        max_scf                                              500
                        No outer loop optimization
                        step_size                                       5.00E-01

 PW_GRID| Information for grid number                                          1
 PW_GRID| Grid distributed over                                   144 processors
 PW_GRID| Real space group dimensions                                   144    1
 PW_GRID| the grid is blocked:                                                NO
 PW_GRID| Cutoff [a.u.]                                                    250.0
 PW_GRID| spherical cutoff:                                                   NO
 PW_GRID|   Bounds   1           -144     143                Points:         288
 PW_GRID|   Bounds   2           -240     239                Points:         480
 PW_GRID|   Bounds   3           -240     239                Points:         480
 PW_GRID| Volume element (a.u.^3)  0.2664E-02     Volume (a.u.^3)    176783.5904
 PW_GRID| Grid span                                                    FULLSPACE
 PW_GRID|   Distribution                         Average         Max         Min
 PW_GRID|   G-Vectors                           460800.0      460800      460800
 PW_GRID|   G-Rays                                1600.0        1600        1600
 PW_GRID|   Real Space Points                   460800.0      460800      460800

 PW_GRID| Information for grid number                                          2
 PW_GRID| Grid distributed over                                   144 processors
 PW_GRID| Real space group dimensions                                   144    1
 PW_GRID| the grid is blocked:                                                NO
 PW_GRID| Cutoff [a.u.]                                                     83.3
 PW_GRID| spherical cutoff:                                                   NO
 PW_GRID|   Bounds   1            -84      83                Points:         168
 PW_GRID|   Bounds   2           -137     137                Points:         275
 PW_GRID|   Bounds   3           -137     137                Points:         275
 PW_GRID| Volume element (a.u.^3)  0.1391E-01     Volume (a.u.^3)    176783.5904
 PW_GRID| Grid span                                                    FULLSPACE
 PW_GRID|   Distribution                         Average         Max         Min
 PW_GRID|   G-Vectors                            88229.2       88368       88032
 PW_GRID|   G-Rays                                 525.2         526         524
 PW_GRID|   Real Space Points                    88229.2      151250       75625

 PW_GRID| Information for grid number                                          3
 PW_GRID| Grid distributed over                                   144 processors
 PW_GRID| Real space group dimensions                                    12   12
 PW_GRID| the grid is blocked:                                                NO
 PW_GRID| Cutoff [a.u.]                                                     27.8
 PW_GRID| spherical cutoff:                                                   NO
 PW_GRID|   Bounds   1            -48      47                Points:          96
 PW_GRID|   Bounds   2            -80      79                Points:         160
 PW_GRID|   Bounds   3            -80      79                Points:         160
 PW_GRID| Volume element (a.u.^3)  0.7193E-01     Volume (a.u.^3)    176783.5904
 PW_GRID| Grid span                                                    FULLSPACE
 PW_GRID|   Distribution                         Average         Max         Min
 PW_GRID|   G-Vectors                            17066.7       17280       16896
 PW_GRID|   G-Rays                                 177.8         180         176
 PW_GRID|   Real Space Points                    17066.7       17920       16640

 PW_GRID| Information for grid number                                          4
 PW_GRID| Grid distributed over                                   144 processors
 PW_GRID| Real space group dimensions                                    12   12
 PW_GRID| the grid is blocked:                                                NO
 PW_GRID| Cutoff [a.u.]                                                      9.3
 PW_GRID| spherical cutoff:                                                   NO
 PW_GRID|   Bounds   1            -27      27                Points:          55
 PW_GRID|   Bounds   2            -48      47                Points:          96
 PW_GRID|   Bounds   3            -48      47                Points:          96
 PW_GRID| Volume element (a.u.^3)  0.3488         Volume (a.u.^3)    176783.5904
 PW_GRID| Grid span                                                    FULLSPACE
 PW_GRID|   Distribution                         Average         Max         Min
 PW_GRID|   G-Vectors                             3520.0        3575        3465
 PW_GRID|   G-Rays                                  64.0          65          63
 PW_GRID|   Real Space Points                     3520.0        3840        3072

 PW_GRID| Information for grid number                                          5
 PW_GRID| Grid distributed over                                   144 processors
 PW_GRID| Real space group dimensions                                    12   12
 PW_GRID| the grid is blocked:                                                NO
 PW_GRID| Cutoff [a.u.]                                                      3.1
 PW_GRID| spherical cutoff:                                                   NO
 PW_GRID|   Bounds   1            -16      15                Points:          32
 PW_GRID|   Bounds   2            -27      26                Points:          54
 PW_GRID|   Bounds   3            -27      26                Points:          54
 PW_GRID| Volume element (a.u.^3)   1.895         Volume (a.u.^3)    176783.5904
 PW_GRID| Grid span                                                    FULLSPACE
 PW_GRID|   Distribution                         Average         Max         Min
 PW_GRID|   G-Vectors                              648.0         704         608
 PW_GRID|   G-Rays                                  20.2          22          19
 PW_GRID|   Real Space Points                      648.0         810         432

 POISSON| Solver                                                        PERIODIC
 POISSON| Periodicity                                                        XYZ

 RS_GRID| Information for grid number                                          1
 RS_GRID|   Bounds   1           -144     143                Points:         288
 RS_GRID|   Bounds   2           -240     239                Points:         480
 RS_GRID|   Bounds   3           -240     239                Points:         480
 RS_GRID| Real space distribution over                                  4 groups
 RS_GRID| Real space distribution along direction                              1
 RS_GRID| Border size                                                         26
 RS_GRID| Real space distribution over                                  6 groups
 RS_GRID| Real space distribution along direction                              2
 RS_GRID| Border size                                                         26
 RS_GRID| Real space distribution over                                  6 groups
 RS_GRID| Real space distribution along direction                              3
 RS_GRID| Border size                                                         26
 RS_GRID|   Distribution                         Average         Max         Min
 RS_GRID|   Planes                                 124.0         124         124
 RS_GRID|   Distribution                         Average         Max         Min
 RS_GRID|   Planes                                 132.0         132         132
 RS_GRID|   Distribution                         Average         Max         Min
 RS_GRID|   Planes                                 132.0         132         132

 RS_GRID| Information for grid number                                          2
 RS_GRID|   Bounds   1            -84      83                Points:         168
 RS_GRID|   Bounds   2           -137     137                Points:         275
 RS_GRID|   Bounds   3           -137     137                Points:         275
 RS_GRID| Real space distribution over                                  4 groups
 RS_GRID| Real space distribution along direction                              1
 RS_GRID| Border size                                                         27
 RS_GRID| Real space distribution over                                  6 groups
 RS_GRID| Real space distribution along direction                              2
 RS_GRID| Border size                                                         27
 RS_GRID| Real space distribution over                                  6 groups
 RS_GRID| Real space distribution along direction                              3
 RS_GRID| Border size                                                         27
 RS_GRID|   Distribution                         Average         Max         Min
 RS_GRID|   Planes                                  96.0          96          96
 RS_GRID|   Distribution                         Average         Max         Min
 RS_GRID|   Planes                                  99.8         100          99
 RS_GRID|   Distribution                         Average         Max         Min
 RS_GRID|   Planes                                  99.8         100          99

 RS_GRID| Information for grid number                                          3
 RS_GRID|   Bounds   1            -48      47                Points:          96
 RS_GRID|   Bounds   2            -80      79                Points:         160
 RS_GRID|   Bounds   3            -80      79                Points:         160
 RS_GRID| Real space fully replicated
 RS_GRID| Group size                                                           1

 RS_GRID| Information for grid number                                          4
 RS_GRID|   Bounds   1            -27      27                Points:          55
 RS_GRID|   Bounds   2            -48      47                Points:          96
 RS_GRID|   Bounds   3            -48      47                Points:          96
 RS_GRID| Real space fully replicated
 RS_GRID| Group size                                                           1

 RS_GRID| Information for grid number                                          5
 RS_GRID|   Bounds   1            -16      15                Points:          32
 RS_GRID|   Bounds   2            -27      26                Points:          54
 RS_GRID|   Bounds   3            -27      26                Points:          54
 RS_GRID| Real space fully replicated
 RS_GRID| Group size                                                           1

 DISTRIBUTION OF THE PARTICLES (ROWS)
              Process row      Number of particles         Number of matrix rows
                        0                        7                            -1
                        1                        7                            -1
                        2                        6                            -1
                        3                        7                            -1
                        4                        7                            -1
                        5                        6                            -1
                        6                        7                            -1
                        7                        7                            -1
                        8                        4                            -1
                        9                        7                            -1
                       10                        6                            -1
                       11                        6                            -1
                      Sum                       77                            -1

 DISTRIBUTION OF THE PARTICLES (COLUMNS)
              Process col      Number of particles      Number of matrix columns
                        0                        7                            -1
                        1                        7                            -1
                        2                        6                            -1
                        3                        7                            -1
                        4                        7                            -1
                        5                        6                            -1
                        6                        7                            -1
                        7                        7                            -1
                        8                        4                            -1
                        9                        7                            -1
                       10                        6                            -1
                       11                        6                            -1
                      Sum                       77                            -1

  HFX_INFO| Replica ID:                                                        1
  HFX_INFO| EPS_SCHWARZ:                                                 1.0E-10
  HFX_INFO| EPS_SCHWARZ_FORCES                                           1.0E-06
  HFX_INFO| EPS_STORAGE_SCALING:                                         1.0E+00
  HFX_INFO| NBINS:                                                            64
  HFX_INFO| BLOCK_SIZE:                                                        1
  HFX_INFO| FRACTION:                                               1.0000000000
  HFX_INFO| Interaction Potential:                                     TRUNCATED
  HFX_INFO| Cutoff Radius [angstrom]:                              10.6711000000
  HFX_INFO| NUMBER_OF_SHELLS:                                               AUTO
  HFX_INFO| Number of periodic shells considered:                             -1
  HFX_INFO| Number of periodic cells considered:                              27


 DISTRIBUTION OF THE NEIGHBOR LISTS
              Total number of particle pairs:                               4179
              Total number of matrix elements:                            134022
              Average number of particle pairs:                               30
              Maximum number of particle pairs:                               47
              Average number of matrix element:                              931
              Maximum number of matrix elements:                            1834


 DISTRIBUTION OF THE OVERLAP MATRIX
              Number  of non-zero blocks:                                   3003
              Percentage non-zero blocks:                                 100.00
              Average number of blocks per CPU:                               21
              Maximum number of blocks per CPU:                               32
              Average number of matrix elements per CPU:                     701
              Maximum number of matrix elements per CPU:                    1063

 Spin 1

 Number of electrons:                                                        175
 Number of occupied orbitals:                                                175
 Number of molecular orbitals:                                               175

 Spin 2

 Number of electrons:                                                        141
 Number of occupied orbitals:                                                141
 Number of molecular orbitals:                                               141

 Number of orbital functions:                                                441
 Number of independent orbital functions:                                    441

 Extrapolation method: initial_guess


 SCF WAVEFUNCTION OPTIMIZATION

  ----------------------------------- OT ---------------------------------------
  Minimizer      : CG                  : conjugate gradient
  Preconditioner : FULL_KINETIC        : inversion of T + eS
  Precond_solver : DEFAULT
  Line search    : 2PNT                : 2 energies, one gradient
  stepsize       :    0.15000000                  energy_gap     :    0.20000000
  eps_taylor     :   0.10000E-15                  max_taylor     :             4
  ----------------------------------- OT ---------------------------------------

  Step     Update method      Time    Convergence         Total energy    Change
  ------------------------------------------------------------------------------

  HFX_MEM_INFO| Est. max. program size before HFX [MiB]:                     289
  HFX_MEM_INFO| Number of cart. primitive ERI's calculated:          75146369157
  HFX_MEM_INFO| Number of sph. ERI's calculated:                      4839086618
  HFX_MEM_INFO| Number of sph. ERI's stored in-core:                  4839086618
  HFX_MEM_INFO| Number of sph. ERI's stored on disk:                           0
  HFX_MEM_INFO| Number of sph. ERI's calculated on the fly:                    0
  HFX_MEM_INFO| Total memory consumption ERI's RAM [MiB]:                  12391
  HFX_MEM_INFO| Whereof max-vals [MiB]:                                        4
  HFX_MEM_INFO| Total compression factor ERI's RAM:                         2.98
  HFX_MEM_INFO| Total memory consumption ERI's disk [MiB]:                     0
  HFX_MEM_INFO| Total compression factor ERI's disk:                        0.00
  HFX_MEM_INFO| Size of density/Fock matrix [MiB]:                             0
  HFX_MEM_INFO| Size of buffers [MiB]:                                         1
  HFX_MEM_INFO| Number of periodic image cells considered:                    27
  HFX_MEM_INFO| Est. max. program size after HFX  [MiB]:                     378

     1 OT CG       0.15E+00   48.8     0.00025560     -1322.6480615998 -1.32E+03
     2 OT LS       0.60E+00    0.8                    -1322.6493108362
     3 OT CG       0.60E+00    1.4     0.00013175     -1322.6516622726 -3.60E-03
     4 OT LS       0.60E+00    0.8                    -1322.6523881754
     5 OT CG       0.60E+00    1.4     0.00014404     -1322.6523881754 -7.26E-04
     6 OT LS       0.37E+00    0.8                    -1322.6527284074
     7 OT CG       0.37E+00    1.3     0.00009616     -1322.6529276973 -5.40E-04
     8 OT LS       0.26E+00    0.8                    -1322.6530680479
     9 OT CG       0.26E+00    1.4     0.00006085     -1322.6530974811 -1.70E-04
    10 OT LS       0.30E+00    0.9                    -1322.6531730051
    11 OT CG       0.30E+00    1.3     0.00004642     -1322.6531739414 -7.65E-05
    12 OT LS       0.43E+00    0.8                    -1322.6532319290
    13 OT CG       0.43E+00    1.3     0.00004624     -1322.6532378112 -6.39E-05
    14 OT LS       0.30E+00    0.9                    -1322.6532733546
    15 OT CG       0.30E+00    1.4     0.00003270     -1322.6532818486 -4.40E-05
    16 OT LS       0.29E+00    0.8                    -1322.6533030796
    17 OT CG       0.29E+00    1.4     0.00002384     -1322.6533031070 -2.13E-05
    18 OT LS       0.41E+00    0.9                    -1322.6533178829
    19 OT CG       0.41E+00    1.4     0.00002538     -1322.6533194248 -1.63E-05
    20 OT LS       0.42E+00    0.9                    -1322.6533381388
    21 OT CG       0.42E+00    1.3     0.00002350     -1322.6533381413 -1.87E-05
    22 OT LS       0.37E+00    0.8                    -1322.6533520886
    23 OT CG       0.37E+00    1.5     0.00001756     -1322.6533523313 -1.42E-05
    24 OT LS       0.34E+00    0.8                    -1322.6533594717
    25 OT CG       0.34E+00    1.3     0.00001427     -1322.6533595423 -7.21E-06
    26 OT LS       0.38E+00    0.8                    -1322.6533648530
    27 OT CG       0.38E+00    1.4     0.00001322     -1322.6533649241 -5.38E-06
    28 OT LS       0.38E+00    0.8                    -1322.6533695701
    29 OT CG       0.38E+00    1.3     0.00001065     -1322.6533695703 -4.65E-06
    30 OT LS       0.31E+00    0.8                    -1322.6533719218
    31 OT CG       0.31E+00    1.4     0.00000738     -1322.6533720427 -2.47E-06
    32 OT LS       0.30E+00    0.9                    -1322.6533731718
    33 OT CG       0.30E+00    1.4     0.00000594     -1322.6533731745 -1.13E-06
    34 OT LS       0.32E+00    0.8                    -1322.6533739660
    35 OT CG       0.32E+00    1.3     0.00000495     -1322.6533739712 -7.97E-07
    36 OT LS       0.37E+00    0.9                    -1322.6533745997
    37 OT CG       0.37E+00    1.5     0.00000435     -1322.6533746111 -6.40E-07
    38 OT LS       0.36E+00    0.8                    -1322.6533750869
    39 OT CG       0.36E+00    1.3     0.00000384     -1322.6533750875 -4.76E-07
    40 OT LS       0.40E+00    0.8                    -1322.6533754971
    41 OT CG       0.40E+00    1.4     0.00000384     -1322.6533755015 -4.14E-07
    42 OT LS       0.50E+00    0.8                    -1322.6533759976
    43 OT CG       0.50E+00    1.4     0.00000429     -1322.6533760183 -5.17E-07
    44 OT LS       0.44E+00    0.9                    -1322.6533765749
    45 OT CG       0.44E+00    1.6     0.00000431     -1322.6533765859 -5.68E-07
    46 OT LS       0.37E+00    0.9                    -1322.6533770448
    47 OT CG       0.37E+00    1.3     0.00000399     -1322.6533770636 -4.78E-07
    48 OT LS       0.39E+00    0.8                    -1322.6533774905
    49 OT CG       0.39E+00    1.4     0.00000359     -1322.6533774913 -4.28E-07
    50 OT LS       0.53E+00    0.9                    -1322.6533779320
    51 OT CG       0.53E+00    1.4     0.00000390     -1322.6533779681 -4.77E-07
    52 OT LS       0.43E+00    0.8                    -1322.6533783908
    53 OT CG       0.43E+00    1.3     0.00000418     -1322.6533784185 -4.50E-07
    54 OT LS       0.38E+00    0.8                    -1322.6533788676
    55 OT CG       0.38E+00    1.3     0.00000456     -1322.6533788757 -4.57E-07
    56 OT LS       0.53E+00    0.8                    -1322.6533795812
    57 OT CG       0.53E+00    1.3     0.00000557     -1322.6533796481 -7.72E-07
    58 OT LS       0.60E+00    0.8                    -1322.6533809332
    59 OT CG       0.60E+00    1.4     0.00000661     -1322.6533809505 -1.30E-06
    60 OT LS       0.51E+00    0.9                    -1322.6533824359
    61 OT CG       0.51E+00    1.3     0.00000666     -1322.6533824916 -1.54E-06
    62 OT LS       0.41E+00    0.8                    -1322.6533836872
    63 OT CG       0.41E+00    1.4     0.00000647     -1322.6533837575 -1.27E-06
    64 OT LS       0.38E+00    0.9                    -1322.6533848641
    65 OT CG       0.38E+00    1.3     0.00000614     -1322.6533848704 -1.11E-06
    66 OT LS       0.37E+00    0.8                    -1322.6533858297
    67 OT CG       0.37E+00    1.3     0.00000539     -1322.6533858314 -9.61E-07
    68 OT LS       0.33E+00    0.9                    -1322.6533864881
    69 OT CG       0.33E+00    1.4     0.00000442     -1322.6533864964 -6.65E-07
    70 OT LS       0.36E+00    0.8                    -1322.6533869768
    71 OT CG       0.36E+00    1.3     0.00000402     -1322.6533869795 -4.83E-07
    72 OT LS       0.37E+00    0.9                    -1322.6533873934
    73 OT CG       0.37E+00    1.5     0.00000360     -1322.6533873938 -4.14E-07
    74 OT LS       0.42E+00    0.8                    -1322.6533877663
    75 OT CG       0.42E+00    1.3     0.00000315     -1322.6533877720 -3.78E-07
    76 OT LS       0.34E+00    0.8                    -1322.6533879930
    77 OT CG       0.34E+00    1.4     0.00000254     -1322.6533880062 -2.34E-07
    78 OT LS       0.37E+00    0.9                    -1322.6533881730
    79 OT CG       0.37E+00    1.4     0.00000215     -1322.6533881746 -1.68E-07
    80 OT LS       0.36E+00    0.8                    -1322.6533882892
    81 OT CG       0.36E+00    1.4     0.00000175     -1322.6533882894 -1.15E-07
    82 OT LS       0.34E+00    0.8                    -1322.6533883616
    83 OT CG       0.34E+00    1.3     0.00000130     -1322.6533883619 -7.24E-08
    84 OT LS       0.38E+00    0.8                    -1322.6533884063
    85 OT CG       0.38E+00    1.3     0.00000104     -1322.6533884069 -4.50E-08
    86 OT LS       0.36E+00    0.8                    -1322.6533884339
    87 OT CG       0.36E+00    1.4     0.00000093     -1322.6533884340 -2.71E-08

  *** SCF run converged in    87 steps ***


  Electronic density on regular grids:       -315.9999999997        0.0000000003
  Core density on regular grids:              321.9999999999       -0.0000000001
  Total charge density on r-space grids:        6.0000000002
  Total charge density g-space grids:           6.0000000002

  Overlap energy of the core charge distribution:               0.00000110945215
  Self energy of the core charge distribution:              -2631.59580429473499
  Core Hamiltonian energy:                                    746.77441565970810
  Hartree energy:                                             754.60017546211134
  Exchange-correlation energy:                                  0.00000000000000
  Hartree-Fock Exchange energy:                              -192.43217637051538

  Total energy:                                             -1322.65338843397876

  outer SCF iter =    1 RMS gradient =   0.93E-06 energy =      -1322.6533884340
  outer SCF loop converged in   1 iterations or   87 steps


  Integrated absolute spin density  :                              34.3024906572
  Ideal and single determinant S**2 :                  306.000000     306.047561

 !-----------------------------------------------------------------------------!
                     Mulliken Population Analysis

 #  Atom  Element  Kind  Atomic population (alpha,beta) Net charge  Spin moment
       1     Fe       1         9.416236     4.676655     1.907109     4.739581
       2     Fe       1         9.416485     4.677391     1.906124     4.739094
       3     Fe       1         9.420381     4.686163     1.893456     4.734217
       4     Fe       1         9.428896     4.692993     1.878111     4.735903
       5     Fe       1         9.160939     5.229041     1.610020     3.931897
       6     Fe       1         9.426097     4.703123     1.870780     4.722974
       7     Fe       1         9.418436     4.681939     1.899625     4.736497
       8     O        2         3.310348     3.288235    -0.598583     0.022113
       9     O        2         3.310338     3.288228    -0.598566     0.022111
      10     O        2         3.509092     3.408396    -0.917487     0.100696
      11     O        2         3.509091     3.408395    -0.917486     0.100696
      12     O        2         3.310391     3.288238    -0.598629     0.022153
      13     O        2         3.310378     3.288228    -0.598606     0.022151
      14     O        2         3.509054     3.407813    -0.916867     0.101241
      15     O        2         3.509054     3.407813    -0.916867     0.101242
      16     O        2         3.310647     3.288812    -0.599458     0.021835
      17     O        2         3.310638     3.288807    -0.599444     0.021831
      18     O        2         3.508936     3.407954    -0.916890     0.100983
      19     O        2         3.508936     3.407953    -0.916889     0.100983
      20     O        2         3.310633     3.292172    -0.602806     0.018461
      21     O        2         3.310617     3.292162    -0.602779     0.018455
      22     O        2         3.508871     3.409728    -0.918598     0.099143
      23     O        2         3.508870     3.409726    -0.918596     0.099144
      24     O        2         3.313177     3.310469    -0.623646     0.002708
      25     O        2         3.313166     3.310458    -0.623624     0.002709
      26     O        2         3.516344     3.428432    -0.944776     0.087912
      27     O        2         3.516345     3.428432    -0.944777     0.087912
      28     O        2         3.310414     3.290759    -0.601173     0.019655
      29     O        2         3.310400     3.290744    -0.601144     0.019656
      30     O        2         3.517113     3.427333    -0.944446     0.089780
      31     O        2         3.517112     3.427334    -0.944446     0.089778
      32     O        2         3.310196     3.288421    -0.598617     0.021776
      33     O        2         3.310191     3.288418    -0.598609     0.021773
      34     O        2         3.509005     3.409451    -0.918457     0.099554
      35     O        2         3.509005     3.409451    -0.918456     0.099554
      36     H        3         0.323446     0.322881     0.353673     0.000565
      37     H        3         0.323447     0.322882     0.353671     0.000565
      38     H        3         0.323441     0.322876     0.353682     0.000565
      39     H        3         0.323440     0.322875     0.353685     0.000565
      40     H        3         0.329564     0.326960     0.343475     0.002604
      41     H        3         0.329564     0.326960     0.343475     0.002604
      42     H        3         0.323455     0.322931     0.353614     0.000525
      43     H        3         0.323456     0.322931     0.353614     0.000525
      44     H        3         0.323449     0.322924     0.353628     0.000525
      45     H        3         0.323448     0.322923     0.353629     0.000525
      46     H        3         0.329187     0.326604     0.344209     0.002583
      47     H        3         0.329187     0.326604     0.344210     0.002583
      48     H        3         0.324045     0.323701     0.352254     0.000344
      49     H        3         0.324048     0.323709     0.352244     0.000339
      50     H        3         0.324040     0.323701     0.352259     0.000339
      51     H        3         0.324038     0.323694     0.352268     0.000344
      52     H        3         0.329559     0.326982     0.343459     0.002577
      53     H        3         0.329560     0.326982     0.343458     0.002577
      54     H        3         0.326973     0.326751     0.346277     0.000222
      55     H        3         0.326920     0.326687     0.346393     0.000233
      56     H        3         0.326910     0.326678     0.346412     0.000232
      57     H        3         0.326960     0.326739     0.346301     0.000222
      58     H        3         0.330147     0.327343     0.342511     0.002804
      59     H        3         0.330147     0.327343     0.342510     0.002804
      60     H        3         0.335860     0.335242     0.328898     0.000618
      61     H        3         0.335930     0.335315     0.328755     0.000615
      62     H        3         0.335927     0.335312     0.328761     0.000615
      63     H        3         0.335855     0.335237     0.328908     0.000619
      64     H        3         0.340706     0.339646     0.319649     0.001060
      65     H        3         0.340705     0.339646     0.319649     0.001059
      66     H        3         0.326889     0.326614     0.346498     0.000275
      67     H        3         0.326885     0.326608     0.346507     0.000277
      68     H        3         0.326879     0.326602     0.346519     0.000277
      69     H        3         0.326883     0.326608     0.346509     0.000275
      70     H        3         0.341571     0.339910     0.318518     0.001661
      71     H        3         0.341572     0.339910     0.318517     0.001662
      72     H        3         0.324222     0.323780     0.351998     0.000442
      73     H        3         0.324225     0.323783     0.351992     0.000442
      74     H        3         0.324221     0.323779     0.352000     0.000442
      75     H        3         0.324218     0.323776     0.352006     0.000442
      76     H        3         0.331594     0.328954     0.339452     0.002640
      77     H        3         0.331594     0.328954     0.339452     0.002640
 # Total charge and spin      175.000000   141.000000     6.000000    34.000000

 !-----------------------------------------------------------------------------!

 !-----------------------------------------------------------------------------!
                           Hirshfeld Charges

  #Atom  Element  Kind  Ref Charge     Population       Spin moment  Net charge
      1       Fe     1      16.000   10.755   6.028            4.727     -0.783
      2       Fe     1      16.000   10.756   6.029            4.727     -0.786
      3       Fe     1      16.000   10.763   6.041            4.722     -0.803
      4       Fe     1      16.000   10.715   5.990            4.725     -0.705
      5       Fe     1      16.000   10.383   6.488            3.894     -0.871
      6       Fe     1      16.000   10.765   6.054            4.711     -0.820
      7       Fe     1      16.000   10.761   6.037            4.724     -0.798
      8       O      2       6.000    3.366   3.339            0.027     -0.705
      9       O      2       6.000    3.366   3.339            0.027     -0.705
     10       O      2       6.000    3.158   3.055            0.103     -0.213
     11       O      2       6.000    3.158   3.055            0.103     -0.213
     12       O      2       6.000    3.366   3.340            0.027     -0.706
     13       O      2       6.000    3.366   3.340            0.027     -0.706
     14       O      2       6.000    3.157   3.054            0.103     -0.212
     15       O      2       6.000    3.157   3.054            0.103     -0.212
     16       O      2       6.000    3.369   3.343            0.026     -0.712
     17       O      2       6.000    3.369   3.343            0.026     -0.713
     18       O      2       6.000    3.159   3.056            0.103     -0.214
     19       O      2       6.000    3.159   3.056            0.103     -0.214
     20       O      2       6.000    3.382   3.359            0.023     -0.741
     21       O      2       6.000    3.382   3.359            0.023     -0.741
     22       O      2       6.000    3.163   3.062            0.102     -0.225
     23       O      2       6.000    3.163   3.062            0.102     -0.225
     24       O      2       6.000    3.405   3.392            0.013     -0.797
     25       O      2       6.000    3.405   3.392            0.013     -0.797
     26       O      2       6.000    3.176   3.085            0.090     -0.261
     27       O      2       6.000    3.176   3.085            0.090     -0.261
     28       O      2       6.000    3.374   3.350            0.024     -0.724
     29       O      2       6.000    3.374   3.350            0.024     -0.724
     30       O      2       6.000    3.173   3.080            0.093     -0.254
     31       O      2       6.000    3.173   3.080            0.093     -0.254
     32       O      2       6.000    3.368   3.341            0.026     -0.709
     33       O      2       6.000    3.368   3.341            0.026     -0.709
     34       O      2       6.000    3.161   3.059            0.102     -0.220
     35       O      2       6.000    3.161   3.059            0.102     -0.220
     36       H      3       1.000    0.201   0.200            0.000      0.599
     37       H      3       1.000    0.201   0.200            0.000      0.599
     38       H      3       1.000    0.201   0.200            0.000      0.599
     39       H      3       1.000    0.201   0.200            0.000      0.599
     40       H      3       1.000    0.204   0.201            0.003      0.594
     41       H      3       1.000    0.204   0.201            0.003      0.594
     42       H      3       1.000    0.201   0.200            0.000      0.599
     43       H      3       1.000    0.201   0.200            0.000      0.599
     44       H      3       1.000    0.201   0.200            0.000      0.599
     45       H      3       1.000    0.201   0.200            0.000      0.599
     46       H      3       1.000    0.204   0.201            0.003      0.595
     47       H      3       1.000    0.204   0.201            0.003      0.595
     48       H      3       1.000    0.201   0.201            0.000      0.598
     49       H      3       1.000    0.201   0.201            0.000      0.598
     50       H      3       1.000    0.201   0.201            0.000      0.598
     51       H      3       1.000    0.201   0.201            0.000      0.598
     52       H      3       1.000    0.204   0.202            0.003      0.594
     53       H      3       1.000    0.204   0.202            0.003      0.594
     54       H      3       1.000    0.202   0.202            0.000      0.596
     55       H      3       1.000    0.202   0.202            0.000      0.596
     56       H      3       1.000    0.202   0.202            0.000      0.596
     57       H      3       1.000    0.202   0.202            0.000      0.596
     58       H      3       1.000    0.204   0.202            0.003      0.594
     59       H      3       1.000    0.204   0.202            0.003      0.594
     60       H      3       1.000    0.206   0.206            0.000      0.588
     61       H      3       1.000    0.206   0.206            0.000      0.588
     62       H      3       1.000    0.206   0.206            0.000      0.588
     63       H      3       1.000    0.206   0.206            0.000      0.588
     64       H      3       1.000    0.209   0.207            0.002      0.583
     65       H      3       1.000    0.209   0.207            0.002      0.583
     66       H      3       1.000    0.202   0.202            0.000      0.595
     67       H      3       1.000    0.202   0.202            0.000      0.596
     68       H      3       1.000    0.202   0.202            0.000      0.596
     69       H      3       1.000    0.202   0.202            0.000      0.596
     70       H      3       1.000    0.210   0.207            0.002      0.583
     71       H      3       1.000    0.210   0.207            0.002      0.583
     72       H      3       1.000    0.201   0.201            0.000      0.598
     73       H      3       1.000    0.201   0.201            0.000      0.598
     74       H      3       1.000    0.201   0.201            0.000      0.598
     75       H      3       1.000    0.201   0.201            0.000      0.598
     76       H      3       1.000    0.205   0.202            0.003      0.592
     77       H      3       1.000    0.205   0.202            0.003      0.592

  Total Charge                                                            6.013
 !-----------------------------------------------------------------------------!
  
[...]
 flops     8 x     2 x    13             21525504     100.0%      0.0%      0.0%
 flops     2 x     8 x    13             21525504     100.0%      0.0%      0.0%
 flops    15 x    15 x    32             21816000     100.0%      0.0%      0.0%
 flops    15 x    32 x    15             21816000     100.0%      0.0%      0.0%
 flops    32 x    15 x    15             21816000     100.0%      0.0%      0.0%
 flops    19 x    19 x    13             23127104     100.0%      0.0%      0.0%
 flops    36 x    13 x    36             24261120     100.0%      0.0%      0.0%
 flops     2 x    13 x     2             24766560     100.0%      0.0%      0.0%
 flops     8 x     2 x    15             24837120     100.0%      0.0%      0.0%
 flops     2 x     8 x    15             24837120     100.0%      0.0%      0.0%
 flops    15 x    15 x    37             25407900     100.0%      0.0%      0.0%
 flops    37 x    13 x    13             26612768     100.0%      0.0%      0.0%
 flops    19 x    19 x    15             26685120     100.0%      0.0%      0.0%
 flops    13 x    32 x    38             27569152     100.0%      0.0%      0.0%
 flops    32 x    13 x    38             27569152     100.0%      0.0%      0.0%
 flops    36 x    15 x    36             27993600     100.0%      0.0%      0.0%
 flops     2 x    15 x     2             28365120     100.0%      0.0%      0.0%
 flops     8 x    19 x    13             34082048     100.0%      0.0%      0.0%
 flops    19 x     8 x    13             34082048     100.0%      0.0%      0.0%
 flops    37 x    15 x    15             35431200     100.0%      0.0%      0.0%
 flops    38 x    32 x    38             37428480     100.0%      0.0%      0.0%
 flops    38 x    13 x    32             38445056     100.0%      0.0%      0.0%
 flops    38 x    32 x    13             38445056     100.0%      0.0%      0.0%
 flops     2 x    13 x    19             39213720     100.0%      0.0%      0.0%
 flops    19 x    13 x     2             39213720     100.0%      0.0%      0.0%
 flops     8 x    19 x    15             39325440     100.0%      0.0%      0.0%
 flops    19 x     8 x    15             39325440     100.0%      0.0%      0.0%
 flops    15 x    32 x    38             39763200     100.0%      0.0%      0.0%
 flops    32 x    15 x    38             39763200     100.0%      0.0%      0.0%
 flops    36 x    13 x    37             43636320     100.0%      0.0%      0.0%
 flops    37 x    13 x    36             43636320     100.0%      0.0%      0.0%
 flops     2 x    15 x    19             44911440     100.0%      0.0%      0.0%
 flops    19 x    15 x     2             44911440     100.0%      0.0%      0.0%
 flops    36 x    15 x    37             50349600     100.0%      0.0%      0.0%
 flops    37 x    15 x    36             50349600     100.0%      0.0%      0.0%
 flops    38 x    15 x    32             55449600     100.0%      0.0%      0.0%
 flops    38 x    32 x    15             55449600     100.0%      0.0%      0.0%
 flops     8 x     8 x    13             59451392     100.0%      0.0%      0.0%
 flops    19 x    13 x    19             62088390     100.0%      0.0%      0.0%
 flops     2 x    13 x     8             66044160     100.0%      0.0%      0.0%
 flops     8 x    13 x     2             66044160     100.0%      0.0%      0.0%
 flops     8 x     8 x    15             68597760     100.0%      0.0%      0.0%
 flops    19 x    15 x    19             71109780     100.0%      0.0%      0.0%
 flops     2 x    15 x     8             75640320     100.0%      0.0%      0.0%
 flops     8 x    15 x     2             75640320     100.0%      0.0%      0.0%
 flops    37 x    13 x    37             78484770     100.0%      0.0%      0.0%
 flops    37 x    15 x    37             90559350     100.0%      0.0%      0.0%
 flops    13 x    32 x    36            104472576     100.0%      0.0%      0.0%
 flops    32 x    13 x    36            104472576     100.0%      0.0%      0.0%
 flops     8 x    13 x    19            104569920     100.0%      0.0%      0.0%
 flops    19 x    13 x     8            104569920     100.0%      0.0%      0.0%
 flops     8 x    15 x    19            119763840     100.0%      0.0%      0.0%
 flops    19 x    15 x     8            119763840     100.0%      0.0%      0.0%
 flops    32 x    32 x    13            129073152     100.0%      0.0%      0.0%
 flops    13 x    32 x    32            129073152     100.0%      0.0%      0.0%
 flops    32 x    13 x    32            129073152     100.0%      0.0%      0.0%
 flops    36 x    32 x    38            141834240     100.0%      0.0%      0.0%
 flops    38 x    32 x    36            141834240     100.0%      0.0%      0.0%
 flops    36 x    13 x    32            145686528     100.0%      0.0%      0.0%
 flops    36 x    32 x    13            145686528     100.0%      0.0%      0.0%
 flops    15 x    32 x    36            150681600     100.0%      0.0%      0.0%
 flops    32 x    15 x    36            150681600     100.0%      0.0%      0.0%
 flops     8 x    13 x     8            176117760     100.0%      0.0%      0.0%
 flops     2 x     2 x    32            183085056     100.0%      0.0%      0.0%
 flops    13 x    32 x    37            187905536     100.0%      0.0%      0.0%
 flops    32 x    13 x    37            187905536     100.0%      0.0%      0.0%
 flops     8 x    15 x     8            201707520     100.0%      0.0%      0.0%
 flops    36 x    15 x    32            210124800     100.0%      0.0%      0.0%
 flops    36 x    32 x    15            210124800     100.0%      0.0%      0.0%
 flops    32 x    32 x    15            232704000     100.0%      0.0%      0.0%
 flops    15 x    32 x    32            232704000     100.0%      0.0%      0.0%
 flops    32 x    15 x    32            232704000     100.0%      0.0%      0.0%
 flops    37 x    32 x    38            255104640     100.0%      0.0%      0.0%
 flops    38 x    32 x    37            255104640     100.0%      0.0%      0.0%
 flops    37 x    32 x    13            262033408     100.0%      0.0%      0.0%
 flops    37 x    13 x    32            262033408     100.0%      0.0%      0.0%
 flops    15 x    32 x    37            271017600     100.0%      0.0%      0.0%
 flops    32 x    15 x    37            271017600     100.0%      0.0%      0.0%
 flops    19 x     2 x    32            283143168     100.0%      0.0%      0.0%
 flops     2 x    19 x    32            283143168     100.0%      0.0%      0.0%
 flops    37 x    32 x    15            377932800     100.0%      0.0%      0.0%
 flops    37 x    15 x    32            377932800     100.0%      0.0%      0.0%
 flops     8 x     2 x    32            476872704     100.0%      0.0%      0.0%
 flops     2 x     8 x    32            476872704     100.0%      0.0%      0.0%
 flops    19 x    19 x    32            512354304     100.0%      0.0%      0.0%
 flops    36 x    32 x    36            537477120     100.0%      0.0%      0.0%
 flops     2 x    32 x     2            546416640     100.0%      0.0%      0.0%
 flops    32 x    32 x    38            695590912     100.0%      0.0%      0.0%
 flops     8 x    19 x    32            755048448     100.0%      0.0%      0.0%
 flops    19 x     8 x    32            755048448     100.0%      0.0%      0.0%
 flops    19 x    32 x     2            865159680     100.0%      0.0%      0.0%
 flops     2 x    32 x    19            865159680     100.0%      0.0%      0.0%
 flops    37 x    32 x    36            966712320     100.0%      0.0%      0.0%
 flops    36 x    32 x    37            966712320     100.0%      0.0%      0.0%
 flops    38 x    32 x    32            969998336     100.0%      0.0%      0.0%
 flops     8 x     8 x    32           1317076992     100.0%      0.0%      0.0%
 flops    19 x    32 x    19           1369836160     100.0%      0.0%      0.0%
 flops     8 x    32 x     2           1457111040     100.0%      0.0%      0.0%
 flops     2 x    32 x     8           1457111040     100.0%      0.0%      0.0%
 flops    37 x    32 x    37           1738739520     100.0%      0.0%      0.0%
 flops    19 x    32 x     8           2307092480     100.0%      0.0%      0.0%
 flops     8 x    32 x    19           2307092480     100.0%      0.0%      0.0%
 flops    32 x    32 x    36           2635923456     100.0%      0.0%      0.0%
 flops    36 x    32 x    32           3675783168     100.0%      0.0%      0.0%
 flops    32 x    32 x    32           3753050112     100.0%      0.0%      0.0%
 flops     8 x    32 x     8           3885629440     100.0%      0.0%      0.0%
 flops    32 x    32 x    37           4741001216     100.0%      0.0%      0.0%
 flops    37 x    32 x    32           6611304448     100.0%      0.0%      0.0%
 flops inhomo. stacks                           0       0.0%      0.0%      0.0%
 flops total                        55.797166E+09     100.0%      0.0%      0.0%
 flops max/rank                      1.244182E+09     100.0%      0.0%      0.0%
 matmuls inhomo. stacks                         0       0.0%      0.0%      0.0%
 matmuls total                           12233449     100.0%      0.0%      0.0%
 number of processed stacks               2777935     100.0%      0.0%      0.0%
 average stack size                                     4.4       0.0       0.0
 marketing flops                    61.161468E+09
 -------------------------------------------------------------------------------
 # multiplications                           2189
 max memory usage/rank             442.724352E+06
 # max total images/rank                        1
 # max 3D layers                                1
 # MPI messages exchanged                 6934752
 MPI messages size (bytes):
  total size                        23.635452E+09
  min size                           0.000000E+00
  max size                          11.552000E+03
  average size                       3.408262E+03
 MPI breakdown and total messages size (bytes):
             size <=      128             4163313                        0
       128 < size <=     8192              900207               5236810568
      8192 < size <=    32768             1871232              18398678760
     32768 < size <=   131072                   0                        0
    131072 < size <=  4194304                   0                        0
   4194304 < size <= 16777216                   0                        0
  16777216 < size                               0                        0
 -------------------------------------------------------------------------------

 MEMORY| Estimated peak process memory [MiB]                                 423

 -------------------------------------------------------------------------------
 ----                             MULTIGRID INFO                            ----
 -------------------------------------------------------------------------------
 count for grid        1:        2403231          cutoff [a.u.]          250.00
 count for grid        2:         881854          cutoff [a.u.]           83.33
 count for grid        3:         416601          cutoff [a.u.]           27.78
 count for grid        4:         123223          cutoff [a.u.]            9.26
 count for grid        5:           1440          cutoff [a.u.]            3.09
 total gridlevel count  :        3826349

 -------------------------------------------------------------------------------
 -                                                                             -
 -                         MESSAGE PASSING PERFORMANCE                         -
 -                                                                             -
 -------------------------------------------------------------------------------

 ROUTINE             CALLS      AVE VOLUME [Bytes]
 MP_Group               32
 MP_Bcast             1151                 283500.
 MP_Allreduce         6584                    654.
 MP_Sync               793
 MP_Alltoall          8651                1824339.
 MP_ISendRecv       163306                  44309.
 MP_Wait            432946
 MP_comm_split           2
 MP_ISend           127408                  54543.
 MP_IRecv           127408                  54277.
 MP_Recv               110                  47628.
 MP_Memory           87594
 -------------------------------------------------------------------------------


 -------------------------------------------------------------------------------
 -                                                                             -
 -                           R E F E R E N C E S                               -
 -                                                                             -
 -------------------------------------------------------------------------------
 
 CP2K version 5.1, the CP2K developers group (2017).
 CP2K is freely available from https://www.cp2k.org/ .

 Schuett, Ole; Messmer, Peter; Hutter, Juerg; VandeVondele, Joost. 
 Electronic Structure Calculations on Graphics Processing Units, John Wiley & Sons, Ltd, 173-190 (2016). 
 GPU-Accelerated Sparse Matrix-Matrix Multiplication for Linear Scaling Density Functional Theory.
 http://dx.doi.org/10.1002/9781118670712.ch8


 Borstnik, U; VandeVondele, J; Weber, V; Hutter, J. 
 PARALLEL COMPUTING, 40 (5-6), 47-58 (2014). 
 Sparse matrix multiplication: The distributed block-compressed sparse
 row library.
 http://dx.doi.org/10.1016/j.parco.2014.03.012


 Hutter, J; Iannuzzi, M; Schiffmann, F; VandeVondele, J. 
 WILEY INTERDISCIPLINARY REVIEWS-COMPUTATIONAL MOLECULAR SCIENCE, 4 (1), 15-25 (2014). 
 CP2K: atomistic simulations of condensed matter systems.
 http://dx.doi.org/10.1002/wcms.1159


 Guidon, M; Hutter, J; VandeVondele, J. 
 JOURNAL OF CHEMICAL THEORY AND COMPUTATION, 5 (11), 3010-3021 (2009). 
 Robust Periodic Hartree-Fock Exchange for Large-Scale Simulations Using
 Gaussian Basis Sets.
 http://dx.doi.org/10.1021/ct900494g


 Guidon, M; Schiffmann, F; Hutter, J; VandeVondele, J. 
 JOURNAL OF CHEMICAL PHYSICS, 128 (21), 214104 (2008). 
 Ab initio molecular dynamics using hybrid density functionals.
 http://dx.doi.org/10.1063/1.2931945


 Krack, M. 
 THEORETICAL CHEMISTRY ACCOUNTS, 114 (1-3), 145-152 (2005). 
 Pseudopotentials for H to Kr optimized for gradient-corrected
 exchange-correlation functionals.
 http://dx.doi.org/10.1007/s00214-005-0655-y


 VandeVondele, J; Krack, M; Mohamed, F; Parrinello, M; Chassaing, T;
 Hutter, J. COMPUTER PHYSICS COMMUNICATIONS, 167 (2), 103-128 (2005). 
 QUICKSTEP: Fast and accurate density functional calculations using a
 mixed Gaussian and plane waves approach.
 http://dx.doi.org/10.1016/j.cpc.2004.12.014


 Frigo, M; Johnson, SG. 
 PROCEEDINGS OF THE IEEE, 93 (2), 216-231 (2005). 
 The design and implementation of FFTW3.
 http://dx.doi.org/10.1109/JPROC.2004.840301


 VandeVondele, J; Hutter, J. 
 JOURNAL OF CHEMICAL PHYSICS, 118 (10), 4365-4369 (2003). 
 An efficient orbital transformation method for electronic structure
 calculations.
 http://dx.doi.org/10.1063/1.1543154


 Hartwigsen, C; Goedecker, S; Hutter, J. 
 PHYSICAL REVIEW B, 58 (7), 3641-3662 (1998). 
 Relativistic separable dual-space Gaussian pseudopotentials from H to Rn.
 http://dx.doi.org/10.1103/PhysRevB.58.3641


 Lippert, G; Hutter, J; Parrinello, M. 
 MOLECULAR PHYSICS, 92 (3), 477-487 (1997). 
 A hybrid Gaussian and plane wave density functional scheme.
 http://dx.doi.org/10.1080/002689797170220


 Goedecker, S; Teter, M; Hutter, J. 
 PHYSICAL REVIEW B, 54 (3), 1703-1710 (1996). 
 Separable dual-space Gaussian pseudopotentials.
 http://dx.doi.org/10.1103/PhysRevB.54.1703


 -------------------------------------------------------------------------------
 -                                                                             -
 -                                T I M I N G                                  -
 -                                                                             -
 -------------------------------------------------------------------------------
 SUBROUTINE                       CALLS  ASD         SELF TIME        TOTAL TIME
                                MAXIMUM       AVERAGE  MAXIMUM  AVERAGE  MAXIMUM
 CP2K                                 1  1.0    0.016    0.043  145.548  145.548
 qs_energies                          1  2.0    0.000    0.000  145.243  145.249
 scf_env_do_scf                       1  3.0    0.000    0.000  144.278  144.278
 qs_ks_update_qs_env                 88  5.0    0.001    0.001   96.207   96.213
 rebuild_ks_matrix                   87  6.0    0.000    0.000   96.199   96.205
 qs_ks_build_kohn_sham_matrix        87  7.0    0.008    0.009   96.199   96.205
 scf_env_do_scf_inner_loop           87  4.0    0.003    0.006   95.404   95.476
 hfx_ks_matrix                       87  8.0    0.001    0.001   72.284   72.342
 integrate_four_center               87  9.0    0.084    0.391   72.277   72.335
 integrate_four_center_main          87 10.0    0.011    0.013   63.750   69.603
 integrate_four_center_bin         5568 11.0   63.739   69.592   63.739   69.592
 init_scf_loop                        1  4.0    0.000    0.000   48.800   48.800
 qs_rho_update_rho                   88  5.0    0.001    0.001   46.046   46.054
 calculate_rho_elec                 176  6.0    1.717    5.332   46.046   46.053
 density_rs2pw                      176  7.0    0.009    0.010   41.287   42.359
 pw_transfer                       1715  8.9    0.073    0.090   34.504   34.694
 fft_wrap_pw1pw2                   1541  9.9    0.011    0.013   33.954   34.141
 fft_wrap_pw1pw2_250                485 10.5    1.834    1.928   28.606   28.916
 fft3d_ps                          1541 11.9   11.626   12.736   27.393   27.717
 rs_pw_transfer                    1324  9.0    0.014    0.018   24.062   25.082
 sum_up_and_integrate                44  8.0    0.000    0.001   18.771   18.787
 integrate_v_rspace                  88  9.0    1.046    3.272   18.771   18.787
 potential_pw2rs                     88 10.0    0.017    0.023   15.244   15.291
 mp_alltoall_z22v                  1541 13.9   11.548   12.334   11.548   12.334
 mp_sync                            793 10.9    6.817   10.487    6.817   10.487
 rs_pw_transfer_RS2PW_250           178  9.0    3.752    4.842    8.019    9.502
 yz_to_x                            441 12.6    1.392    1.529    8.279    8.808
 mp_waitany                       22344 11.0    6.856    8.582    6.856    8.582
 x_to_yz                            308 12.9    1.611    1.714    6.188    6.473
 mp_waitall_1                    410602 12.2    4.687    5.386    4.687    5.386
 fft_wrap_pw1pw2_90                 264 11.0    0.167    0.238    3.820    4.299
 rs_pw_transfer_PW2RS_250            90 11.9    2.124    2.362    3.657    3.829
 rs_pw_transfer_RS2PW_90            176  9.0    1.744    2.121    3.129    3.703
 mp_alltoall_d11v                   997 11.2    2.809    3.605    2.809    3.605
 rs_distribute_matrix               264  8.0    0.016    0.048    2.801    3.586
 rs_pw_transfer_RS2PW_30            176  9.0    1.572    1.737    3.389    3.564
 pw_gather_p                        969 11.3    2.854    2.935    2.854    2.935
 -------------------------------------------------------------------------------

 The number of warnings for this run is : 0
 
 -------------------------------------------------------------------------------
  **** **** ******  **  PROGRAM ENDED AT                 2019-07-13 09:03:30.359
 ***** ** ***  *** **   PROGRAM RAN ON            cpn-u26-16.cbls.ccr.buffalo.ed
 **    ****   ******    PROGRAM RAN BY                                  pavankum
 ***** **    ** ** **   PROGRAM PROCESS ID                                 93951
  **** **  *******  **  PROGRAM STOPPED IN /projects/academic/mdupuis2/pavan/VAB
                                           _calculation/23.Fe_clust_paper/7units
                                           _dzv/GPW/largecell/point_0.2
