 DBCSR| Multiplication driver                                               BLAS
 DBCSR| Multrec recursion limit                                              512
 DBCSR| Multiplication stack size                                           1000
 DBCSR| Maximum elements for images                                    UNLIMITED
 DBCSR| Multiplicative factor virtual images                                   1
 DBCSR| Multiplication size stacks                                             3
 DBCSR| Number of 3D layers                                               SINGLE
 DBCSR| Use MPI memory allocation                                              T
 DBCSR| Use RMA algorithm                                                      F
 DBCSR| Use Communication thread                                               T
 DBCSR| Communication thread load                                             87


  **** **** ******  **  PROGRAM STARTED AT               2019-07-13 19:41:04.966
 ***** ** ***  *** **   PROGRAM STARTED ON        cpn-u26-09.cbls.ccr.buffalo.ed
 **    ****   ******    PROGRAM STARTED BY                              pavankum
 ***** **    ** ** **   PROGRAM PROCESS ID                                   827
  **** **  *******  **  PROGRAM STARTED IN /projects/academic/mdupuis2/pavan/VAB
                                           _calculation/23.Fe_clust_paper/7units
                                           _dzv/GPW/largecell/point_0.6

 CP2K| version string:                                          CP2K version 5.1
 CP2K| source code revision number:                                    svn:18091
 CP2K| cp2kflags: libint fftw3 libxc parallel mpi3 scalapack has_no_shared_glibc
 CP2K|             max_contr=4
 CP2K| is freely available from                            https://www.cp2k.org/
 CP2K| Program compiled at                          Wed Mar 21 12:31:25 EDT 2018
 CP2K| Program compiled on                       srv-k07-14.cbls.ccr.buffalo.edu
 CP2K| Program compiled for                                                local
 CP2K| Data directory path    /projects/academic/mdupuis2/pavan/cp2k/cp2k-5.1/da
 CP2K| Input file name                                                 input.inp

 GLOBAL| Force Environment number                                              1
 GLOBAL| Basis set file name            /projects/academic/mdupuis2/pavan/BASIS_
 GLOBAL| Potential file name            /projects/academic/mdupuis2/pavan/POTENT
 GLOBAL| MM Potential file name                                     MM_POTENTIAL
 GLOBAL| Coordinate file name                                   intermediate.xyz
 GLOBAL| Method name                                                        CP2K
 GLOBAL| Project name                                                      p_fe_
 GLOBAL| Preferred FFT library                                             FFTW3
 GLOBAL| Preferred diagonalization lib.                                       SL
 GLOBAL| Run type                                                         ENERGY
 GLOBAL| All-to-all communication in single precision                          F
 GLOBAL| FFTs using library dependent lengths                                  T
 GLOBAL| Global print level                                               MEDIUM
 GLOBAL| Total number of message passing processes                           144
 GLOBAL| Number of threads for this process                                    1
 GLOBAL| This output is from process                                           0
 GLOBAL| CPU model name :  Intel(R) Xeon(R) Gold 6126 CPU @ 2.60GHz

 MEMORY| system memory details [Kb]
 MEMORY|                        rank 0           min           max       average
 MEMORY| MemTotal            196307064     196307064     196307064     196307064
 MEMORY| MemFree             144683880     134966216     148627032     140551662
 MEMORY| Buffers                436712        436364        468792        443447
 MEMORY| Cached               44795900      41052712      54279372      48921017
 MEMORY| Slab                   946672        892536       1225436       1023669
 MEMORY| SReclaimable           614116        565656        896064        694563
 MEMORY| MemLikelyFree       190530608     190530608     190695192     190610690


 *** Fundamental physical constants (SI units) ***

 *** Literature: B. J. Mohr and B. N. Taylor,
 ***             CODATA recommended values of the fundamental physical
 ***             constants: 2006, Web Version 5.1
 ***             http://physics.nist.gov/constants

 Speed of light in vacuum [m/s]                             2.99792458000000E+08
 Magnetic constant or permeability of vacuum [N/A**2]       1.25663706143592E-06
 Electric constant or permittivity of vacuum [F/m]          8.85418781762039E-12
 Planck constant (h) [J*s]                                  6.62606896000000E-34
 Planck constant (h-bar) [J*s]                              1.05457162825177E-34
 Elementary charge [C]                                      1.60217648700000E-19
 Electron mass [kg]                                         9.10938215000000E-31
 Electron g factor [ ]                                     -2.00231930436220E+00
 Proton mass [kg]                                           1.67262163700000E-27
 Fine-structure constant                                    7.29735253760000E-03
 Rydberg constant [1/m]                                     1.09737315685270E+07
 Avogadro constant [1/mol]                                  6.02214179000000E+23
 Boltzmann constant [J/K]                                   1.38065040000000E-23
 Atomic mass unit [kg]                                      1.66053878200000E-27
 Bohr radius [m]                                            5.29177208590000E-11

 *** Conversion factors ***

 [u] -> [a.u.]                                              1.82288848426455E+03
 [Angstrom] -> [Bohr] = [a.u.]                              1.88972613288564E+00
 [a.u.] = [Bohr] -> [Angstrom]                              5.29177208590000E-01
 [a.u.] -> [s]                                              2.41888432650478E-17
 [a.u.] -> [fs]                                             2.41888432650478E-02
 [a.u.] -> [J]                                              4.35974393937059E-18
 [a.u.] -> [N]                                              8.23872205491840E-08
 [a.u.] -> [K]                                              3.15774647902944E+05
 [a.u.] -> [kJ/mol]                                         2.62549961709828E+03
 [a.u.] -> [kcal/mol]                                       6.27509468713739E+02
 [a.u.] -> [Pa]                                             2.94210107994716E+13
 [a.u.] -> [bar]                                            2.94210107994716E+08
 [a.u.] -> [atm]                                            2.90362800883016E+08
 [a.u.] -> [eV]                                             2.72113838565563E+01
 [a.u.] -> [Hz]                                             6.57968392072181E+15
 [a.u.] -> [1/cm] (wave numbers)                            2.19474631370540E+05
 [a.u./Bohr**2] -> [1/cm]                                   5.14048714338585E+03
 

 CELL_TOP| Volume [angstrom^3]:                                        26196.625
 CELL_TOP| Vector a [angstrom    21.385     0.000     0.000    |a| =      21.385
 CELL_TOP| Vector b [angstrom     0.000    35.000     0.000    |b| =      35.000
 CELL_TOP| Vector c [angstrom     0.000     0.000    35.000    |c| =      35.000
 CELL_TOP| Angle (b,c), alpha [degree]:                                   90.000
 CELL_TOP| Angle (a,c), beta  [degree]:                                   90.000
 CELL_TOP| Angle (a,b), gamma [degree]:                                   90.000
 CELL_TOP| Numerically orthorhombic:                                         YES

 CELL| Volume [angstrom^3]:                                            26196.625
 CELL| Vector a [angstrom]:      21.385     0.000     0.000    |a| =      21.385
 CELL| Vector b [angstrom]:       0.000    35.000     0.000    |b| =      35.000
 CELL| Vector c [angstrom]:       0.000     0.000    35.000    |c| =      35.000
 CELL| Angle (b,c), alpha [degree]:                                       90.000
 CELL| Angle (a,c), beta  [degree]:                                       90.000
 CELL| Angle (a,b), gamma [degree]:                                       90.000
 CELL| Numerically orthorhombic:                                             YES

 CELL_REF| Volume [angstrom^3]:                                        26196.625
 CELL_REF| Vector a [angstrom    21.385     0.000     0.000    |a| =      21.385
 CELL_REF| Vector b [angstrom     0.000    35.000     0.000    |b| =      35.000
 CELL_REF| Vector c [angstrom     0.000     0.000    35.000    |c| =      35.000
 CELL_REF| Angle (b,c), alpha [degree]:                                   90.000
 CELL_REF| Angle (a,c), beta  [degree]:                                   90.000
 CELL_REF| Angle (a,b), gamma [degree]:                                   90.000
 CELL_REF| Numerically orthorhombic:                                         YES

 *******************************************************************************
 *******************************************************************************
 **                                                                           **
 **     #####                         ##              ##                      **
 **    ##   ##            ##          ##              ##                      **
 **   ##     ##                       ##            ######                    **
 **   ##     ##  ##   ##  ##   #####  ##  ##   ####   ##    #####    #####    **
 **   ##     ##  ##   ##  ##  ##      ## ##   ##      ##   ##   ##  ##   ##   **
 **   ##  ## ##  ##   ##  ##  ##      ####     ###    ##   ######   ######    **
 **    ##  ###   ##   ##  ##  ##      ## ##      ##   ##   ##       ##        **
 **     #######   #####   ##   #####  ##  ##  ####    ##    #####   ##        **
 **           ##                                                    ##        **
 **                                                                           **
 **                                                ... make the atoms dance   **
 **                                                                           **
 **            Copyright (C) by CP2K developers group (2000 - 2017)           **
 **                                                                           **
 *******************************************************************************

 DFT| Spin unrestricted (spin-polarized) Kohn-Sham calculation               UKS
 DFT| Multiplicity                                                            35
 DFT| Number of spin states                                                    2
 DFT| Charge                                                                   6
 DFT| Self-interaction correction (SIC)                                       NO
 DFT| Cutoffs: density                                              1.000000E-10
 DFT|          gradient                                             1.000000E-10
 DFT|          tau                                                  1.000000E-10
 DFT|          cutoff_smoothing_range                               0.000000E+00
 DFT| XC density smoothing                                                  NONE
 DFT| XC derivatives                                                          PW
 FUNCTIONAL| NO EXCHANGE-CORRELATION FUNCTIONAL USED.

 QS| Method:                                                                 GPW
 QS| Density plane wave grid type                        NON-SPHERICAL FULLSPACE
 QS| Number of grid levels:                                                    5
 QS| Density cutoff [a.u.]:                                                250.0
 QS| Multi grid cutoff [a.u.]: 1) grid level                               250.0
 QS|                           2) grid level                                83.3
 QS|                           3) grid level                                27.8
 QS|                           4) grid level                                 9.3
 QS|                           5) grid level                                 3.1
 QS| Grid level progression factor:                                          3.0
 QS| Relative density cutoff [a.u.]:                                        30.0
 QS| Consistent realspace mapping and integration 
 QS| Interaction thresholds: eps_pgf_orb:                                1.0E-10
 QS|                         eps_filter_matrix:                          0.0E+00
 QS|                         eps_core_charge:                            1.0E-14
 QS|                         eps_rho_gspace:                             1.0E-12
 QS|                         eps_rho_rspace:                             1.0E-12
 QS|                         eps_gvg_rspace:                             1.0E-06
 QS|                         eps_ppl:                                    1.0E-02
 QS|                         eps_ppnl:                                   1.0E-08


 ATOMIC KIND INFORMATION

  1. Atomic kind: Fe                                    Number of atoms:       7

     Orbital Basis Set                                                   mod-DZV

       Number of orbital shell sets:                                           1
       Number of orbital shells:                                               7
       Number of primitive Cartesian functions:                                6
       Number of Cartesian basis functions:                                   21
       Number of spherical basis functions:                                   19
       Norm type:                                                              2

       Normalised Cartesian orbitals:

                        Set   Shell   Orbital            Exponent    Coefficient

                          1       1    2s                8.424366      -0.545589
                                                         4.825220      -0.832336
                                                         2.198939       0.958990
                                                         0.891661       0.416271
                                                         0.316231       0.012631
                                                         0.103474      -0.013505

                          1       2    3s                8.424366      -0.106056
                                                         4.825220      -0.104587
                                                         2.198939       0.052318
                                                         0.891661      -0.169042
                                                         0.316231       0.061854
                                                         0.103474       0.122891

                          1       3    4s                8.424366      -0.333477
                                                         4.825220      -0.289267
                                                         2.198939      -0.125861
                                                         0.891661      -1.004000
                                                         0.316231       0.780774
                                                         0.103474      -0.187846

                          1       4    3px               8.424366      -1.658234
                                                         4.825220       1.618912
                                                         2.198939       1.969078
                                                         0.891661       0.523780
                                                         0.316231       0.024574
                                                         0.103474      -0.000798
                          1       4    3py               8.424366      -1.658234
                                                         4.825220       1.618912
                                                         2.198939       1.969078
                                                         0.891661       0.523780
                                                         0.316231       0.024574
                                                         0.103474      -0.000798
                          1       4    3pz               8.424366      -1.658234
                                                         4.825220       1.618912
                                                         2.198939       1.969078
                                                         0.891661       0.523780
                                                         0.316231       0.024574
                                                         0.103474      -0.000798

                          1       5    4px               8.424366      -0.105249
                                                         4.825220      -0.126123
                                                         2.198939      -0.349657
                                                         0.891661      -0.133470
                                                         0.316231       0.170554
                                                         0.103474       0.054381
                          1       5    4py               8.424366      -0.105249
                                                         4.825220      -0.126123
                                                         2.198939      -0.349657
                                                         0.891661      -0.133470
                                                         0.316231       0.170554
                                                         0.103474       0.054381
                          1       5    4pz               8.424366      -0.105249
                                                         4.825220      -0.126123
                                                         2.198939      -0.349657
                                                         0.891661      -0.133470
                                                         0.316231       0.170554
                                                         0.103474       0.054381

                          1       6    4dx2              8.424366       7.918298
                                                         4.825220       5.112663
                                                         2.198939       2.118663
                                                         0.891661       0.465004
                                                         0.316231       0.065856
                                                         0.103474       0.002769
                          1       6    4dxy              8.424366      13.714895
                                                         4.825220       8.855393
                                                         2.198939       3.669632
                                                         0.891661       0.805411
                                                         0.316231       0.114066
                                                         0.103474       0.004796
                          1       6    4dxz              8.424366      13.714895
                                                         4.825220       8.855393
                                                         2.198939       3.669632
                                                         0.891661       0.805411
                                                         0.316231       0.114066
                                                         0.103474       0.004796
                          1       6    4dy2              8.424366       7.918298
                                                         4.825220       5.112663
                                                         2.198939       2.118663
                                                         0.891661       0.465004
                                                         0.316231       0.065856
                                                         0.103474       0.002769
                          1       6    4dyz              8.424366      13.714895
                                                         4.825220       8.855393
                                                         2.198939       3.669632
                                                         0.891661       0.805411
                                                         0.316231       0.114066
                                                         0.103474       0.004796
                          1       6    4dz2              8.424366       7.918298
                                                         4.825220       5.112663
                                                         2.198939       2.118663
                                                         0.891661       0.465004
                                                         0.316231       0.065856
                                                         0.103474       0.002769

                          1       7    5dx2              8.424366      -4.223614
                                                         4.825220      -1.970584
                                                         2.198939      -1.543490
                                                         0.891661      -0.041381
                                                         0.316231       0.082821
                                                         0.103474       0.021964
                          1       7    5dxy              8.424366      -7.315513
                                                         4.825220      -3.413151
                                                         2.198939      -2.673404
                                                         0.891661      -0.071673
                                                         0.316231       0.143450
                                                         0.103474       0.038042
                          1       7    5dxz              8.424366      -7.315513
                                                         4.825220      -3.413151
                                                         2.198939      -2.673404
                                                         0.891661      -0.071673
                                                         0.316231       0.143450
                                                         0.103474       0.038042
                          1       7    5dy2              8.424366      -4.223614
                                                         4.825220      -1.970584
                                                         2.198939      -1.543490
                                                         0.891661      -0.041381
                                                         0.316231       0.082821
                                                         0.103474       0.021964
                          1       7    5dyz              8.424366      -7.315513
                                                         4.825220      -3.413151
                                                         2.198939      -2.673404
                                                         0.891661      -0.071673
                                                         0.316231       0.143450
                                                         0.103474       0.038042
                          1       7    5dz2              8.424366      -4.223614
                                                         4.825220      -1.970584
                                                         2.198939      -1.543490
                                                         0.891661      -0.041381
                                                         0.316231       0.082821
                                                         0.103474       0.021964

     GTH Potential information for                                  GTH-BLYP-q16

       Description:                       Goedecker-Teter-Hutter pseudopotential
                                           Goedecker et al., PRB 54, 1703 (1996)
                                          Hartwigsen et al., PRB 58, 3641 (1998)
                                                      Krack, TCA 114, 145 (2005)

       Gaussian exponent of the core charge distribution:               3.858025
       Electronic configuration (s p d ...):                           4   6   6

       Parameters of the local part of the GTH pseudopotential:

                          rloc        C1          C2          C3          C4
                        0.360000    7.011025   -0.222747

       Parameters of the non-local part of the GTH pseudopotential:

                   l      r(l)      h(i,j,l)

                   0    0.276205    0.611496    7.992357
                                    7.992357  -10.318089
                   1    0.247130   -8.710556    8.684169
                                    8.684169  -10.275248
                   2    0.223534  -12.411504

  2. Atomic kind: O                                     Number of atoms:      28

     Orbital Basis Set                                                   mod-DZV

       Number of orbital shell sets:                                           1
       Number of orbital shells:                                               4
       Number of primitive Cartesian functions:                                5
       Number of Cartesian basis functions:                                    8
       Number of spherical basis functions:                                    8
       Norm type:                                                              2

       Normalised Cartesian orbitals:

                        Set   Shell   Orbital            Exponent    Coefficient

                          1       1    2s               10.389228       0.396646
                                                         3.849621       0.208811
                                                         1.388401      -0.301641
                                                         0.496955      -0.274061
                                                         0.162492      -0.033677

                          1       2    3s               10.389228       0.303673
                                                         3.849621       0.240943
                                                         1.388401      -0.313066
                                                         0.496955      -0.043055
                                                         0.162492       0.213991

                          1       3    3px              10.389228      -1.530415
                                                         3.849621      -1.371928
                                                         1.388401      -0.761951
                                                         0.496955      -0.253695
                                                         0.162492      -0.035541
                          1       3    3py              10.389228      -1.530415
                                                         3.849621      -1.371928
                                                         1.388401      -0.761951
                                                         0.496955      -0.253695
                                                         0.162492      -0.035541
                          1       3    3pz              10.389228      -1.530415
                                                         3.849621      -1.371928
                                                         1.388401      -0.761951
                                                         0.496955      -0.253695
                                                         0.162492      -0.035541

                          1       4    4px              10.389228      -0.565392
                                                         3.849621      -0.038231
                                                         1.388401      -0.382373
                                                         0.496955       0.179070
                                                         0.162492       0.122714
                          1       4    4py              10.389228      -0.565392
                                                         3.849621      -0.038231
                                                         1.388401      -0.382373
                                                         0.496955       0.179070
                                                         0.162492       0.122714
                          1       4    4pz              10.389228      -0.565392
                                                         3.849621      -0.038231
                                                         1.388401      -0.382373
                                                         0.496955       0.179070
                                                         0.162492       0.122714

     GTH Potential information for                                   GTH-BLYP-q6

       Description:                       Goedecker-Teter-Hutter pseudopotential
                                           Goedecker et al., PRB 54, 1703 (1996)
                                          Hartwigsen et al., PRB 58, 3641 (1998)
                                                      Krack, TCA 114, 145 (2005)

       Gaussian exponent of the core charge distribution:               8.438331
       Electronic configuration (s p d ...):                               2   4

       Parameters of the local part of the GTH pseudopotential:

                          rloc        C1          C2          C3          C4
                        0.243420  -16.991892    2.566142

       Parameters of the non-local part of the GTH pseudopotential:

                   l      r(l)      h(i,j,l)

                   0    0.220831   18.388851
                   1    0.217201

  3. Atomic kind: H                                     Number of atoms:      42

     Orbital Basis Set                                                   mod-DZV

       Number of orbital shell sets:                                           1
       Number of orbital shells:                                               2
       Number of primitive Cartesian functions:                                5
       Number of Cartesian basis functions:                                    2
       Number of spherical basis functions:                                    2
       Norm type:                                                              2

       Normalised Cartesian orbitals:

                        Set   Shell   Orbital            Exponent    Coefficient

                          1       1    2s               10.068468      -0.133023
                                                         2.680223      -0.177618
                                                         0.791502      -0.258419
                                                         0.239116      -0.107525
                                                         0.082193      -0.014019

                          1       2    3s               10.068468       0.344673
                                                         2.680223       1.819821
                                                         0.791502      -0.999069
                                                         0.239116       0.017430
                                                         0.082193       0.082660

     GTH Potential information for                                   GTH-BLYP-q1

       Description:                       Goedecker-Teter-Hutter pseudopotential
                                           Goedecker et al., PRB 54, 1703 (1996)
                                          Hartwigsen et al., PRB 58, 3641 (1998)
                                                      Krack, TCA 114, 145 (2005)

       Gaussian exponent of the core charge distribution:              12.500000
       Electronic configuration (s p d ...):                                   1

       Parameters of the local part of the GTH pseudopotential:

                          rloc        C1          C2          C3          C4
                        0.200000   -4.195961    0.730498


 MOLECULE KIND INFORMATION


 All atoms are their own molecule, skipping detailed information


 TOTAL NUMBERS AND MAXIMUM NUMBERS

  Total number of            - Atomic kinds:                                   3
                             - Atoms:                                         77
                             - Shell sets:                                    77
                             - Shells:                                       245
                             - Primitive Cartesian functions:                392
                             - Cartesian basis functions:                    455
                             - Spherical basis functions:                    441

  Maximum angular momentum of- Orbital basis functions:                        2
                             - Local part of the GTH pseudopotential:          2
                             - Non-local part of the GTH pseudopotential:      3


 MODULE QUICKSTEP:  ATOMIC COORDINATES IN angstrom

  Atom  Kind  Element       X           Y           Z          Z(eff)       Mass

       1     1 Fe  26   18.333569    0.000005    0.000030     16.00      55.8450
       2     1 Fe  26   15.273758   -0.000003    0.000136     16.00      55.8450
       3     1 Fe  26   12.203969   -0.000019   -0.000166     16.00      55.8450
       4     1 Fe  26    9.157705    0.000001   -0.000029     16.00      55.8450
       5     1 Fe  26    6.131415    0.000022    0.000228     16.00      55.8450
       6     1 Fe  26    3.075041    0.000004   -0.000018     16.00      55.8450
       7     1 Fe  26    0.008256   -0.000007    0.000014     16.00      55.8450
       8     2 O    8   18.332645   -0.000002    2.143020      6.00      15.9994
       9     2 O    8   18.332547    0.000007   -2.142986      6.00      15.9994
      10     2 O    8   19.857166   -1.261048   -0.000034      6.00      15.9994
      11     2 O    8   19.857173    1.261045   -0.000045      6.00      15.9994
      12     2 O    8   15.285099   -0.000173    2.147899      6.00      15.9994
      13     2 O    8   15.285038    0.000190   -2.147656      6.00      15.9994
      14     2 O    8   16.812877   -1.261094   -0.000016      6.00      15.9994
      15     2 O    8   16.812874    1.261104    0.000135      6.00      15.9994
      16     2 O    8   12.252952    0.000754    2.163527      6.00      15.9994
      17     2 O    8   12.253252   -0.000803   -2.163922      6.00      15.9994
      18     2 O    8   13.774854   -1.259319   -0.000154      6.00      15.9994
      19     2 O    8   13.774856    1.259282    0.000201      6.00      15.9994
      20     2 O    8    9.185772   -0.001793    2.244935      6.00      15.9994
      21     2 O    8    9.185481    0.001799   -2.245015      6.00      15.9994
      22     2 O    8   10.783482   -1.298286    0.002707      6.00      15.9994
      23     2 O    8   10.783494    1.298238   -0.003388      6.00      15.9994
      24     2 O    8    6.089274    0.000899    2.220884      6.00      15.9994
      25     2 O    8    6.089508   -0.000845   -2.220394      6.00      15.9994
      26     2 O    8    7.616997   -1.325083    0.003013      6.00      15.9994
      27     2 O    8    7.617010    1.325134   -0.002544      6.00      15.9994
      28     2 O    8    3.034391   -0.000273    2.159464      6.00      15.9994
      29     2 O    8    3.034436    0.000259   -2.159521      6.00      15.9994
      30     2 O    8    4.518177   -1.284791   -0.000407      6.00      15.9994
      31     2 O    8    4.518179    1.284833    0.000492      6.00      15.9994
      32     2 O    8   -0.001853   -0.000004    2.146155      6.00      15.9994
      33     2 O    8   -0.001938   -0.000006   -2.146173      6.00      15.9994
      34     2 O    8    1.512422   -1.259878   -0.000193      6.00      15.9994
      35     2 O    8    1.512414    1.259864   -0.000024      6.00      15.9994
      36     3 H    1   18.321110   -0.794361   -2.689004      1.00       1.0079
      37     3 H    1   18.320933    0.794382   -2.688980      1.00       1.0079
      38     3 H    1   18.321128   -0.794395    2.688989      1.00       1.0079
      39     3 H    1   18.321277    0.794382    2.689014      1.00       1.0079
      40     3 H    1   19.863242   -2.221160    0.000002      1.00       1.0079
      41     3 H    1   19.863257    2.221156   -0.000017      1.00       1.0079
      42     3 H    1   15.183814   -0.793821   -2.684992      1.00       1.0079
      43     3 H    1   15.182944    0.794065   -2.684983      1.00       1.0079
      44     3 H    1   15.183164   -0.794058    2.685253      1.00       1.0079
      45     3 H    1   15.183986    0.793843    2.685257      1.00       1.0079
      46     3 H    1   16.803822   -2.221155   -0.000004      1.00       1.0079
      47     3 H    1   16.803824    2.221167    0.000055      1.00       1.0079
      48     3 H    1   12.097926   -0.795431   -2.687546      1.00       1.0079
      49     3 H    1   12.092589    0.793850   -2.685728      1.00       1.0079
      50     3 H    1   12.092204   -0.793878    2.685315      1.00       1.0079
      51     3 H    1   12.097477    0.795427    2.687022      1.00       1.0079
      52     3 H    1   13.743164   -2.218231    0.000865      1.00       1.0079
      53     3 H    1   13.743087    2.218190   -0.000468      1.00       1.0079
      54     3 H    1    9.115246   -0.794408   -2.776061      1.00       1.0079
      55     3 H    1    9.115691    0.796774   -2.778016      1.00       1.0079
      56     3 H    1    9.115515   -0.796795    2.777879      1.00       1.0079
      57     3 H    1    9.114969    0.794427    2.775946      1.00       1.0079
      58     3 H    1   10.744357   -2.254894   -0.002070      1.00       1.0079
      59     3 H    1   10.744445    2.254845    0.001012      1.00       1.0079
      60     3 H    1    6.187244   -0.796352   -2.748779      1.00       1.0079
      61     3 H    1    6.192703    0.794710   -2.746924      1.00       1.0079
      62     3 H    1    6.192227   -0.794716    2.747382      1.00       1.0079
      63     3 H    1    6.186755    0.796383    2.749367      1.00       1.0079
      64     3 H    1    7.624325   -2.280631   -0.000952      1.00       1.0079
      65     3 H    1    7.624387    2.280683    0.001809      1.00       1.0079
      66     3 H    1    3.181225   -0.794167   -2.686132      1.00       1.0079
      67     3 H    1    3.181585    0.794586   -2.686241      1.00       1.0079
      68     3 H    1    3.181618   -0.794651    2.686087      1.00       1.0079
      69     3 H    1    3.181299    0.794200    2.685970      1.00       1.0079
      70     3 H    1    4.558674   -2.241939    0.000712      1.00       1.0079
      71     3 H    1    4.558587    2.241986   -0.000794      1.00       1.0079
      72     3 H    1    0.078726   -0.794097   -2.686916      1.00       1.0079
      73     3 H    1    0.078607    0.794117   -2.686887      1.00       1.0079
      74     3 H    1    0.078783   -0.794167    2.686797      1.00       1.0079
      75     3 H    1    0.078926    0.794129    2.686814      1.00       1.0079
      76     3 H    1    1.538682   -2.219130   -0.000179      1.00       1.0079
      77     3 H    1    1.538682    2.219114    0.000028      1.00       1.0079




 SCF PARAMETERS         Density guess:                                   RESTART
                        --------------------------------------------------------
                        max_scf:                                            1000
                        max_scf_history:                                       0
                        max_diis:                                              4
                        --------------------------------------------------------
                        eps_scf:                                        1.00E-06
                        eps_scf_history:                                0.00E+00
                        eps_diis:                                       1.00E-01
                        eps_eigval:                                     1.00E-05
                        --------------------------------------------------------
                        level_shift [a.u.]:                                 0.00
                        --------------------------------------------------------
                        Outer loop SCF in use 
                        No variables optimised in outer loop
                        eps_scf                                         1.00E-06
                        max_scf                                              500
                        No outer loop optimization
                        step_size                                       5.00E-01

 PW_GRID| Information for grid number                                          1
 PW_GRID| Grid distributed over                                   144 processors
 PW_GRID| Real space group dimensions                                   144    1
 PW_GRID| the grid is blocked:                                                NO
 PW_GRID| Cutoff [a.u.]                                                    250.0
 PW_GRID| spherical cutoff:                                                   NO
 PW_GRID|   Bounds   1           -144     143                Points:         288
 PW_GRID|   Bounds   2           -240     239                Points:         480
 PW_GRID|   Bounds   3           -240     239                Points:         480
 PW_GRID| Volume element (a.u.^3)  0.2664E-02     Volume (a.u.^3)    176783.5904
 PW_GRID| Grid span                                                    FULLSPACE
 PW_GRID|   Distribution                         Average         Max         Min
 PW_GRID|   G-Vectors                           460800.0      460800      460800
 PW_GRID|   G-Rays                                1600.0        1600        1600
 PW_GRID|   Real Space Points                   460800.0      460800      460800

 PW_GRID| Information for grid number                                          2
 PW_GRID| Grid distributed over                                   144 processors
 PW_GRID| Real space group dimensions                                   144    1
 PW_GRID| the grid is blocked:                                                NO
 PW_GRID| Cutoff [a.u.]                                                     83.3
 PW_GRID| spherical cutoff:                                                   NO
 PW_GRID|   Bounds   1            -84      83                Points:         168
 PW_GRID|   Bounds   2           -137     137                Points:         275
 PW_GRID|   Bounds   3           -137     137                Points:         275
 PW_GRID| Volume element (a.u.^3)  0.1391E-01     Volume (a.u.^3)    176783.5904
 PW_GRID| Grid span                                                    FULLSPACE
 PW_GRID|   Distribution                         Average         Max         Min
 PW_GRID|   G-Vectors                            88229.2       88368       88032
 PW_GRID|   G-Rays                                 525.2         526         524
 PW_GRID|   Real Space Points                    88229.2      151250       75625

 PW_GRID| Information for grid number                                          3
 PW_GRID| Grid distributed over                                   144 processors
 PW_GRID| Real space group dimensions                                    12   12
 PW_GRID| the grid is blocked:                                                NO
 PW_GRID| Cutoff [a.u.]                                                     27.8
 PW_GRID| spherical cutoff:                                                   NO
 PW_GRID|   Bounds   1            -48      47                Points:          96
 PW_GRID|   Bounds   2            -80      79                Points:         160
 PW_GRID|   Bounds   3            -80      79                Points:         160
 PW_GRID| Volume element (a.u.^3)  0.7193E-01     Volume (a.u.^3)    176783.5904
 PW_GRID| Grid span                                                    FULLSPACE
 PW_GRID|   Distribution                         Average         Max         Min
 PW_GRID|   G-Vectors                            17066.7       17280       16896
 PW_GRID|   G-Rays                                 177.8         180         176
 PW_GRID|   Real Space Points                    17066.7       17920       16640

 PW_GRID| Information for grid number                                          4
 PW_GRID| Grid distributed over                                   144 processors
 PW_GRID| Real space group dimensions                                    12   12
 PW_GRID| the grid is blocked:                                                NO
 PW_GRID| Cutoff [a.u.]                                                      9.3
 PW_GRID| spherical cutoff:                                                   NO
 PW_GRID|   Bounds   1            -27      27                Points:          55
 PW_GRID|   Bounds   2            -48      47                Points:          96
 PW_GRID|   Bounds   3            -48      47                Points:          96
 PW_GRID| Volume element (a.u.^3)  0.3488         Volume (a.u.^3)    176783.5904
 PW_GRID| Grid span                                                    FULLSPACE
 PW_GRID|   Distribution                         Average         Max         Min
 PW_GRID|   G-Vectors                             3520.0        3575        3465
 PW_GRID|   G-Rays                                  64.0          65          63
 PW_GRID|   Real Space Points                     3520.0        3840        3072

 PW_GRID| Information for grid number                                          5
 PW_GRID| Grid distributed over                                   144 processors
 PW_GRID| Real space group dimensions                                    12   12
 PW_GRID| the grid is blocked:                                                NO
 PW_GRID| Cutoff [a.u.]                                                      3.1
 PW_GRID| spherical cutoff:                                                   NO
 PW_GRID|   Bounds   1            -16      15                Points:          32
 PW_GRID|   Bounds   2            -27      26                Points:          54
 PW_GRID|   Bounds   3            -27      26                Points:          54
 PW_GRID| Volume element (a.u.^3)   1.895         Volume (a.u.^3)    176783.5904
 PW_GRID| Grid span                                                    FULLSPACE
 PW_GRID|   Distribution                         Average         Max         Min
 PW_GRID|   G-Vectors                              648.0         704         608
 PW_GRID|   G-Rays                                  20.2          22          19
 PW_GRID|   Real Space Points                      648.0         810         432

 POISSON| Solver                                                        PERIODIC
 POISSON| Periodicity                                                        XYZ

 RS_GRID| Information for grid number                                          1
 RS_GRID|   Bounds   1           -144     143                Points:         288
 RS_GRID|   Bounds   2           -240     239                Points:         480
 RS_GRID|   Bounds   3           -240     239                Points:         480
 RS_GRID| Real space distribution over                                  4 groups
 RS_GRID| Real space distribution along direction                              1
 RS_GRID| Border size                                                         26
 RS_GRID| Real space distribution over                                  6 groups
 RS_GRID| Real space distribution along direction                              2
 RS_GRID| Border size                                                         26
 RS_GRID| Real space distribution over                                  6 groups
 RS_GRID| Real space distribution along direction                              3
 RS_GRID| Border size                                                         26
 RS_GRID|   Distribution                         Average         Max         Min
 RS_GRID|   Planes                                 124.0         124         124
 RS_GRID|   Distribution                         Average         Max         Min
 RS_GRID|   Planes                                 132.0         132         132
 RS_GRID|   Distribution                         Average         Max         Min
 RS_GRID|   Planes                                 132.0         132         132

 RS_GRID| Information for grid number                                          2
 RS_GRID|   Bounds   1            -84      83                Points:         168
 RS_GRID|   Bounds   2           -137     137                Points:         275
 RS_GRID|   Bounds   3           -137     137                Points:         275
 RS_GRID| Real space distribution over                                  4 groups
 RS_GRID| Real space distribution along direction                              1
 RS_GRID| Border size                                                         27
 RS_GRID| Real space distribution over                                  6 groups
 RS_GRID| Real space distribution along direction                              2
 RS_GRID| Border size                                                         27
 RS_GRID| Real space distribution over                                  6 groups
 RS_GRID| Real space distribution along direction                              3
 RS_GRID| Border size                                                         27
 RS_GRID|   Distribution                         Average         Max         Min
 RS_GRID|   Planes                                  96.0          96          96
 RS_GRID|   Distribution                         Average         Max         Min
 RS_GRID|   Planes                                  99.8         100          99
 RS_GRID|   Distribution                         Average         Max         Min
 RS_GRID|   Planes                                  99.8         100          99

 RS_GRID| Information for grid number                                          3
 RS_GRID|   Bounds   1            -48      47                Points:          96
 RS_GRID|   Bounds   2            -80      79                Points:         160
 RS_GRID|   Bounds   3            -80      79                Points:         160
 RS_GRID| Real space fully replicated
 RS_GRID| Group size                                                           1

 RS_GRID| Information for grid number                                          4
 RS_GRID|   Bounds   1            -27      27                Points:          55
 RS_GRID|   Bounds   2            -48      47                Points:          96
 RS_GRID|   Bounds   3            -48      47                Points:          96
 RS_GRID| Real space fully replicated
 RS_GRID| Group size                                                           1

 RS_GRID| Information for grid number                                          5
 RS_GRID|   Bounds   1            -16      15                Points:          32
 RS_GRID|   Bounds   2            -27      26                Points:          54
 RS_GRID|   Bounds   3            -27      26                Points:          54
 RS_GRID| Real space fully replicated
 RS_GRID| Group size                                                           1

 DISTRIBUTION OF THE PARTICLES (ROWS)
              Process row      Number of particles         Number of matrix rows
                        0                        7                            -1
                        1                        7                            -1
                        2                        6                            -1
                        3                        7                            -1
                        4                        7                            -1
                        5                        6                            -1
                        6                        7                            -1
                        7                        7                            -1
                        8                        4                            -1
                        9                        7                            -1
                       10                        6                            -1
                       11                        6                            -1
                      Sum                       77                            -1

 DISTRIBUTION OF THE PARTICLES (COLUMNS)
              Process col      Number of particles      Number of matrix columns
                        0                        7                            -1
                        1                        7                            -1
                        2                        6                            -1
                        3                        7                            -1
                        4                        7                            -1
                        5                        6                            -1
                        6                        7                            -1
                        7                        7                            -1
                        8                        4                            -1
                        9                        7                            -1
                       10                        6                            -1
                       11                        6                            -1
                      Sum                       77                            -1

  HFX_INFO| Replica ID:                                                        1
  HFX_INFO| EPS_SCHWARZ:                                                 1.0E-10
  HFX_INFO| EPS_SCHWARZ_FORCES                                           1.0E-06
  HFX_INFO| EPS_STORAGE_SCALING:                                         1.0E+00
  HFX_INFO| NBINS:                                                            64
  HFX_INFO| BLOCK_SIZE:                                                        1
  HFX_INFO| FRACTION:                                               1.0000000000
  HFX_INFO| Interaction Potential:                                     TRUNCATED
  HFX_INFO| Cutoff Radius [angstrom]:                              10.6711000000
  HFX_INFO| NUMBER_OF_SHELLS:                                               AUTO
  HFX_INFO| Number of periodic shells considered:                             -1
  HFX_INFO| Number of periodic cells considered:                              27


 DISTRIBUTION OF THE NEIGHBOR LISTS
              Total number of particle pairs:                               4179
              Total number of matrix elements:                            134022
              Average number of particle pairs:                               30
              Maximum number of particle pairs:                               47
              Average number of matrix element:                              931
              Maximum number of matrix elements:                            1834


 DISTRIBUTION OF THE OVERLAP MATRIX
              Number  of non-zero blocks:                                   3003
              Percentage non-zero blocks:                                 100.00
              Average number of blocks per CPU:                               21
              Maximum number of blocks per CPU:                               32
              Average number of matrix elements per CPU:                     701
              Maximum number of matrix elements per CPU:                    1063

 Spin 1

 Number of electrons:                                                        175
 Number of occupied orbitals:                                                175
 Number of molecular orbitals:                                               175

 Spin 2

 Number of electrons:                                                        141
 Number of occupied orbitals:                                                141
 Number of molecular orbitals:                                               141

 Number of orbital functions:                                                441
 Number of independent orbital functions:                                    441

 Extrapolation method: initial_guess


 SCF WAVEFUNCTION OPTIMIZATION

  ----------------------------------- OT ---------------------------------------
  Minimizer      : CG                  : conjugate gradient
  Preconditioner : FULL_KINETIC        : inversion of T + eS
  Precond_solver : DEFAULT
  Line search    : 2PNT                : 2 energies, one gradient
  stepsize       :    0.15000000                  energy_gap     :    0.20000000
  eps_taylor     :   0.10000E-15                  max_taylor     :             4
  ----------------------------------- OT ---------------------------------------

  Step     Update method      Time    Convergence         Total energy    Change
  ------------------------------------------------------------------------------

  HFX_MEM_INFO| Est. max. program size before HFX [MiB]:                     292
  HFX_MEM_INFO| Number of cart. primitive ERI's calculated:          75145413518
  HFX_MEM_INFO| Number of sph. ERI's calculated:                      4839090074
  HFX_MEM_INFO| Number of sph. ERI's stored in-core:                  4839090074
  HFX_MEM_INFO| Number of sph. ERI's stored on disk:                           0
  HFX_MEM_INFO| Number of sph. ERI's calculated on the fly:                    0
  HFX_MEM_INFO| Total memory consumption ERI's RAM [MiB]:                  12391
  HFX_MEM_INFO| Whereof max-vals [MiB]:                                        4
  HFX_MEM_INFO| Total compression factor ERI's RAM:                         2.98
  HFX_MEM_INFO| Total memory consumption ERI's disk [MiB]:                     0
  HFX_MEM_INFO| Total compression factor ERI's disk:                        0.00
  HFX_MEM_INFO| Size of density/Fock matrix [MiB]:                             0
  HFX_MEM_INFO| Size of buffers [MiB]:                                         1
  HFX_MEM_INFO| Number of periodic image cells considered:                    27
  HFX_MEM_INFO| Est. max. program size after HFX  [MiB]:                     381

     1 OT CG       0.15E+00   48.5     0.00008521     -1322.6434208337 -1.32E+03
     2 OT LS       0.60E+00    0.9                    -1322.6435596831
     3 OT CG       0.60E+00    1.3     0.00004407     -1322.6438213447 -4.01E-04
     4 OT LS       0.59E+00    0.9                    -1322.6439015338
     5 OT CG       0.59E+00    1.3     0.00004884     -1322.6439015461 -8.02E-05
     6 OT LS       0.35E+00    0.8                    -1322.6439330657
     7 OT CG       0.35E+00    1.4     0.00003492     -1322.6439601702 -5.86E-05
     8 OT LS       0.23E+00    0.8                    -1322.6439746305
     9 OT CG       0.23E+00    1.4     0.00002176     -1322.6439799218 -1.98E-05
    10 OT LS       0.28E+00    0.8                    -1322.6439889379
    11 OT CG       0.28E+00    1.4     0.00001572     -1322.6439892236 -9.30E-06
    12 OT LS       0.40E+00    0.8                    -1322.6439954961
    13 OT CG       0.40E+00    1.4     0.00001554     -1322.6439960827 -6.86E-06
    14 OT LS       0.34E+00    0.8                    -1322.6440015467
    15 OT CG       0.34E+00    1.3     0.00001103     -1322.6440017398 -5.66E-06
    16 OT LS       0.30E+00    0.8                    -1322.6440042679
    17 OT CG       0.30E+00    1.6     0.00000783     -1322.6440043002 -2.56E-06
    18 OT LS       0.42E+00    1.0                    -1322.6440059560
    19 OT CG       0.42E+00    1.3     0.00000828     -1322.6440061000 -1.80E-06
    20 OT LS       0.44E+00    0.9                    -1322.6440082034
    21 OT CG       0.44E+00    1.3     0.00000783     -1322.6440082078 -2.11E-06
    22 OT LS       0.37E+00    0.9                    -1322.6440097381
    23 OT CG       0.37E+00    1.3     0.00000598     -1322.6440097950 -1.59E-06
    24 OT LS       0.33E+00    0.8                    -1322.6440106027
    25 OT CG       0.33E+00    1.3     0.00000489     -1322.6440106158 -8.21E-07
    26 OT LS       0.37E+00    0.9                    -1322.6440112309
    27 OT CG       0.37E+00    1.3     0.00000455     -1322.6440112395 -6.24E-07
    28 OT LS       0.38E+00    0.8                    -1322.6440117909
    29 OT CG       0.38E+00    1.4     0.00000384     -1322.6440117911 -5.52E-07
    30 OT LS       0.30E+00    0.8                    -1322.6440120708
    31 OT CG       0.30E+00    1.4     0.00000275     -1322.6440120962 -3.05E-07
    32 OT LS       0.29E+00    0.8                    -1322.6440122470
    33 OT CG       0.29E+00    1.4     0.00000211     -1322.6440122472 -1.51E-07
    34 OT LS       0.36E+00    1.0                    -1322.6440123545
    35 OT CG       0.36E+00    1.4     0.00000180     -1322.6440123592 -1.12E-07
    36 OT LS       0.40E+00    0.9                    -1322.6440124482
    37 OT CG       0.40E+00    1.3     0.00000164     -1322.6440124489 -8.97E-08
    38 OT LS       0.38E+00    0.9                    -1322.6440125190
    39 OT CG       0.38E+00    1.3     0.00000148     -1322.6440125193 -7.04E-08
    40 OT LS       0.42E+00    0.9                    -1322.6440125820
    41 OT CG       0.42E+00    1.4     0.00000151     -1322.6440125826 -6.34E-08
    42 OT LS       0.51E+00    0.8                    -1322.6440126614
    43 OT CG       0.51E+00    1.5     0.00000174     -1322.6440126644 -8.17E-08
    44 OT LS       0.44E+00    1.0                    -1322.6440127536
    45 OT CG       0.44E+00    1.6     0.00000174     -1322.6440127565 -9.21E-08
    46 OT LS       0.38E+00    0.8                    -1322.6440128349
    47 OT CG       0.38E+00    1.4     0.00000161     -1322.6440128366 -8.01E-08
    48 OT LS       0.41E+00    0.8                    -1322.6440129109
    49 OT CG       0.41E+00    1.4     0.00000146     -1322.6440129113 -7.47E-08
    50 OT LS       0.55E+00    0.8                    -1322.6440129882
    51 OT CG       0.55E+00    1.3     0.00000165     -1322.6440129936 -8.22E-08
    52 OT LS       0.40E+00    0.9                    -1322.6440130596
    53 OT CG       0.40E+00    1.3     0.00000178     -1322.6440130701 -7.66E-08
    54 OT LS       0.38E+00    0.8                    -1322.6440131542
    55 OT CG       0.38E+00    1.3     0.00000187     -1322.6440131545 -8.43E-08
    56 OT LS       0.58E+00    0.9                    -1322.6440132800
    57 OT CG       0.58E+00    1.3     0.00000237     -1322.6440132971 -1.43E-07
    58 OT LS       0.54E+00    0.9                    -1322.6440135072
    59 OT CG       0.54E+00    1.3     0.00000279     -1322.6440135086 -2.11E-07
    60 OT LS       0.40E+00    0.8                    -1322.6440137013
    61 OT CG       0.40E+00    1.3     0.00000276     -1322.6440137270 -2.18E-07
    62 OT LS       0.36E+00    0.8                    -1322.6440139167
    63 OT CG       0.36E+00    1.4     0.00000245     -1322.6440139191 -1.92E-07
    64 OT LS       0.42E+00    0.8                    -1322.6440140911
    65 OT CG       0.42E+00    1.3     0.00000225     -1322.6440140945 -1.75E-07
    66 OT LS       0.42E+00    0.8                    -1322.6440142423
    67 OT CG       0.42E+00    1.4     0.00000209     -1322.6440142423 -1.48E-07
    68 OT LS       0.32E+00    0.8                    -1322.6440143304
    69 OT CG       0.32E+00    1.3     0.00000178     -1322.6440143398 -9.75E-08
    70 OT LS       0.35E+00    0.8                    -1322.6440144157
    71 OT CG       0.35E+00    1.6     0.00000163     -1322.6440144162 -7.64E-08
    72 OT LS       0.40E+00    1.0                    -1322.6440144889
    73 OT CG       0.40E+00    1.3     0.00000151     -1322.6440144903 -7.41E-08
    74 OT LS       0.42E+00    0.9                    -1322.6440145567
    75 OT CG       0.42E+00    1.3     0.00000137     -1322.6440145568 -6.65E-08
    76 OT LS       0.35E+00    0.9                    -1322.6440146007
    77 OT CG       0.35E+00    1.3     0.00000113     -1322.6440146025 -4.58E-08
    78 OT LS       0.37E+00    0.8                    -1322.6440146358
    79 OT CG       0.37E+00    1.3     0.00000098     -1322.6440146359 -3.34E-08

  *** SCF run converged in    79 steps ***


  Electronic density on regular grids:       -315.9999999997        0.0000000003
  Core density on regular grids:              321.9999999999       -0.0000000001
  Total charge density on r-space grids:        6.0000000002
  Total charge density g-space grids:           6.0000000002

  Overlap energy of the core charge distribution:               0.00000112429440
  Self energy of the core charge distribution:              -2631.59580429473499
  Core Hamiltonian energy:                                    746.74704325312996
  Hartree energy:                                             754.63287440887950
  Exchange-correlation energy:                                  0.00000000000000
  Hartree-Fock Exchange energy:                              -192.42812912748013

  Total energy:                                             -1322.64401463591093

  outer SCF iter =    1 RMS gradient =   0.98E-06 energy =      -1322.6440146359
  outer SCF loop converged in   1 iterations or   79 steps


  Integrated absolute spin density  :                              34.3025821851
  Ideal and single determinant S**2 :                  306.000000     306.047531

 !-----------------------------------------------------------------------------!
                     Mulliken Population Analysis

 #  Atom  Element  Kind  Atomic population (alpha,beta) Net charge  Spin moment
       1     Fe       1         9.416215     4.676628     1.907157     4.739587
       2     Fe       1         9.418331     4.681364     1.900305     4.736967
       3     Fe       1         9.425119     4.700392     1.874489     4.724728
       4     Fe       1         9.158601     5.232645     1.608754     3.925956
       5     Fe       1         9.430365     4.681756     1.887879     4.748609
       6     Fe       1         9.421820     4.689208     1.888972     4.732611
       7     Fe       1         9.416555     4.677836     1.905609     4.738719
       8     O        2         3.310142     3.288032    -0.598174     0.022110
       9     O        2         3.310137     3.288028    -0.598166     0.022109
      10     O        2         3.509032     3.407806    -0.916838     0.101226
      11     O        2         3.509032     3.407805    -0.916838     0.101227
      12     O        2         3.310040     3.288255    -0.598295     0.021785
      13     O        2         3.310027     3.288242    -0.598270     0.021785
      14     O        2         3.509107     3.408393    -0.917500     0.100714
      15     O        2         3.509107     3.408394    -0.917501     0.100713
      16     O        2         3.310105     3.290343    -0.600447     0.019762
      17     O        2         3.310114     3.290360    -0.600473     0.019754
      18     O        2         3.509117     3.409904    -0.919021     0.099213
      19     O        2         3.509117     3.409904    -0.919021     0.099213
      20     O        2         3.311418     3.308349    -0.619767     0.003068
      21     O        2         3.311405     3.308336    -0.619741     0.003069
      22     O        2         3.517174     3.427546    -0.944720     0.089629
      23     O        2         3.517173     3.427544    -0.944717     0.089629
      24     O        2         3.310986     3.293717    -0.604703     0.017270
      25     O        2         3.310966     3.293689    -0.604655     0.017276
      26     O        2         3.515755     3.429143    -0.944898     0.086611
      27     O        2         3.515754     3.429142    -0.944896     0.086612
      28     O        2         3.310845     3.289086    -0.599931     0.021758
      29     O        2         3.310834     3.289078    -0.599912     0.021756
      30     O        2         3.508690     3.410125    -0.918815     0.098565
      31     O        2         3.508690     3.410125    -0.918815     0.098565
      32     O        2         3.310208     3.288067    -0.598275     0.022140
      33     O        2         3.310196     3.288058    -0.598254     0.022137
      34     O        2         3.508791     3.407496    -0.916288     0.101295
      35     O        2         3.508790     3.407495    -0.916285     0.101295
      36     H        3         0.323549     0.322984     0.353467     0.000565
      37     H        3         0.323548     0.322983     0.353469     0.000565
      38     H        3         0.323545     0.322980     0.353476     0.000565
      39     H        3         0.323546     0.322981     0.353472     0.000565
      40     H        3         0.329187     0.326607     0.344206     0.002579
      41     H        3         0.329187     0.326607     0.344206     0.002579
      42     H        3         0.324255     0.323786     0.351959     0.000469
      43     H        3         0.324239     0.323769     0.351991     0.000470
      44     H        3         0.324233     0.323763     0.352004     0.000470
      45     H        3         0.324249     0.323779     0.351972     0.000470
      46     H        3         0.329572     0.326968     0.343459     0.002604
      47     H        3         0.329572     0.326968     0.343460     0.002604
      48     H        3         0.326972     0.326654     0.346374     0.000317
      49     H        3         0.326932     0.326627     0.346441     0.000305
      50     H        3         0.326931     0.326626     0.346443     0.000305
      51     H        3         0.326973     0.326656     0.346371     0.000317
      52     H        3         0.331587     0.328930     0.339483     0.002657
      53     H        3         0.331588     0.328931     0.339482     0.002657
      54     H        3         0.336806     0.336154     0.327040     0.000653
      55     H        3         0.336937     0.336304     0.326758     0.000633
      56     H        3         0.336931     0.336297     0.326772     0.000633
      57     H        3         0.336797     0.336144     0.327059     0.000653
      58     H        3         0.342909     0.341508     0.315583     0.001401
      59     H        3         0.342909     0.341509     0.315582     0.001400
      60     H        3         0.326863     0.326603     0.346534     0.000260
      61     H        3         0.326958     0.326708     0.346333     0.000250
      62     H        3         0.326954     0.326704     0.346342     0.000250
      63     H        3         0.326854     0.326594     0.346552     0.000260
      64     H        3         0.341250     0.340819     0.317931     0.000432
      65     H        3         0.341251     0.340819     0.317930     0.000432
      66     H        3         0.324016     0.323712     0.352273     0.000304
      67     H        3         0.323984     0.323679     0.352337     0.000305
      68     H        3         0.323978     0.323673     0.352348     0.000305
      69     H        3         0.324010     0.323707     0.352282     0.000303
      70     H        3         0.328788     0.325828     0.345384     0.002960
      71     H        3         0.328787     0.325828     0.345385     0.002959
      72     H        3         0.323603     0.323106     0.353291     0.000497
      73     H        3         0.323601     0.323104     0.353295     0.000497
      74     H        3         0.323593     0.323096     0.353310     0.000497
      75     H        3         0.323596     0.323099     0.353305     0.000497
      76     H        3         0.329600     0.327055     0.343345     0.002544
      77     H        3         0.329600     0.327056     0.343344     0.002544
 # Total charge and spin      175.000000   141.000000     6.000000    34.000000

 !-----------------------------------------------------------------------------!

 !-----------------------------------------------------------------------------!
                           Hirshfeld Charges

  #Atom  Element  Kind  Ref Charge     Population       Spin moment  Net charge
      1       Fe     1      16.000   10.755   6.028            4.727     -0.783
      2       Fe     1      16.000   10.760   6.036            4.725     -0.796
      3       Fe     1      16.000   10.767   6.054            4.713     -0.821
      4       Fe     1      16.000   10.431   6.545            3.886     -0.977
      5       Fe     1      16.000   10.666   5.928            4.738     -0.594
      6       Fe     1      16.000   10.762   6.042            4.721     -0.804
      7       Fe     1      16.000   10.757   6.031            4.727     -0.788
      8       O      2       6.000    3.366   3.339            0.027     -0.705
      9       O      2       6.000    3.366   3.339            0.027     -0.705
     10       O      2       6.000    3.158   3.054            0.103     -0.212
     11       O      2       6.000    3.158   3.054            0.103     -0.212
     12       O      2       6.000    3.367   3.341            0.026     -0.708
     13       O      2       6.000    3.367   3.341            0.026     -0.708
     14       O      2       6.000    3.158   3.055            0.103     -0.213
     15       O      2       6.000    3.158   3.055            0.103     -0.213
     16       O      2       6.000    3.373   3.348            0.025     -0.721
     17       O      2       6.000    3.373   3.348            0.025     -0.721
     18       O      2       6.000    3.160   3.059            0.102     -0.219
     19       O      2       6.000    3.160   3.059            0.102     -0.219
     20       O      2       6.000    3.398   3.384            0.014     -0.783
     21       O      2       6.000    3.398   3.384            0.014     -0.783
     22       O      2       6.000    3.171   3.078            0.093     -0.249
     23       O      2       6.000    3.171   3.078            0.093     -0.249
     24       O      2       6.000    3.388   3.367            0.021     -0.756
     25       O      2       6.000    3.388   3.367            0.021     -0.756
     26       O      2       6.000    3.175   3.086            0.089     -0.261
     27       O      2       6.000    3.175   3.086            0.089     -0.261
     28       O      2       6.000    3.371   3.345            0.026     -0.715
     29       O      2       6.000    3.371   3.345            0.026     -0.715
     30       O      2       6.000    3.165   3.064            0.101     -0.229
     31       O      2       6.000    3.165   3.064            0.101     -0.229
     32       O      2       6.000    3.367   3.340            0.027     -0.707
     33       O      2       6.000    3.367   3.340            0.027     -0.707
     34       O      2       6.000    3.159   3.056            0.103     -0.215
     35       O      2       6.000    3.159   3.056            0.103     -0.215
     36       H      3       1.000    0.201   0.200            0.000      0.599
     37       H      3       1.000    0.201   0.200            0.000      0.599
     38       H      3       1.000    0.201   0.200            0.000      0.599
     39       H      3       1.000    0.201   0.200            0.000      0.599
     40       H      3       1.000    0.204   0.201            0.003      0.595
     41       H      3       1.000    0.204   0.201            0.003      0.595
     42       H      3       1.000    0.201   0.201            0.000      0.598
     43       H      3       1.000    0.201   0.201            0.000      0.598
     44       H      3       1.000    0.201   0.201            0.000      0.598
     45       H      3       1.000    0.201   0.201            0.000      0.598
     46       H      3       1.000    0.204   0.202            0.003      0.594
     47       H      3       1.000    0.204   0.202            0.003      0.594
     48       H      3       1.000    0.202   0.202            0.000      0.595
     49       H      3       1.000    0.202   0.202            0.000      0.595
     50       H      3       1.000    0.202   0.202            0.000      0.595
     51       H      3       1.000    0.202   0.202            0.000      0.595
     52       H      3       1.000    0.205   0.202            0.003      0.592
     53       H      3       1.000    0.205   0.202            0.003      0.592
     54       H      3       1.000    0.207   0.206            0.000      0.587
     55       H      3       1.000    0.207   0.206            0.000      0.587
     56       H      3       1.000    0.207   0.206            0.000      0.587
     57       H      3       1.000    0.207   0.206            0.000      0.587
     58       H      3       1.000    0.210   0.208            0.002      0.581
     59       H      3       1.000    0.210   0.208            0.002      0.581
     60       H      3       1.000    0.202   0.202            0.000      0.596
     61       H      3       1.000    0.202   0.202            0.000      0.596
     62       H      3       1.000    0.202   0.202            0.000      0.596
     63       H      3       1.000    0.202   0.202            0.000      0.596
     64       H      3       1.000    0.210   0.208            0.001      0.582
     65       H      3       1.000    0.210   0.208            0.001      0.582
     66       H      3       1.000    0.201   0.201            0.000      0.598
     67       H      3       1.000    0.201   0.201            0.000      0.598
     68       H      3       1.000    0.201   0.201            0.000      0.598
     69       H      3       1.000    0.201   0.201            0.000      0.598
     70       H      3       1.000    0.204   0.201            0.003      0.596
     71       H      3       1.000    0.204   0.201            0.003      0.596
     72       H      3       1.000    0.201   0.200            0.000      0.599
     73       H      3       1.000    0.201   0.200            0.000      0.599
     74       H      3       1.000    0.201   0.200            0.000      0.599
     75       H      3       1.000    0.201   0.200            0.000      0.599
     76       H      3       1.000    0.204   0.202            0.003      0.594
     77       H      3       1.000    0.204   0.202            0.003      0.594

  Total Charge                                                            6.013
 !-----------------------------------------------------------------------------!
  
  Eigenvalues of the occupied subspace spin            1
 ---------------------------------------------
      -5.10901433     -5.10620706     -5.10450013     -5.09357642
      -5.09120212     -5.05006547     -4.69862509     -3.60519350
      -3.60326620     -3.60240557     -3.60233976     -3.60087009
      -3.60047250     -3.59959951     -3.59873582     -3.59779264
      -3.58884231     -3.58844293     -3.58734057     -3.58604858
      -3.58553619     -3.58454926     -3.54610186     -3.54480956
      -3.54318280     -3.24666840     -3.17842565     -3.16842882
      -1.74787336     -1.74510886     -1.74428386     -1.74208812
[...]
 flops    36 x    15 x    15             17884800     100.0%      0.0%      0.0%
 flops     8 x     2 x    13             19568640     100.0%      0.0%      0.0%
 flops     2 x     8 x    13             19568640     100.0%      0.0%      0.0%
 flops    15 x    15 x    32             19728000     100.0%      0.0%      0.0%
 flops    15 x    32 x    15             19728000     100.0%      0.0%      0.0%
 flops    32 x    15 x    15             19728000     100.0%      0.0%      0.0%
 flops    19 x    19 x    13             21024640     100.0%      0.0%      0.0%
 flops    36 x    13 x    36             22104576     100.0%      0.0%      0.0%
 flops     2 x    13 x     2             22565088     100.0%      0.0%      0.0%
 flops     8 x     2 x    15             22579200     100.0%      0.0%      0.0%
 flops     2 x     8 x    15             22579200     100.0%      0.0%      0.0%
 flops    15 x    15 x    37             23076900     100.0%      0.0%      0.0%
 flops    37 x    13 x    13             24161592     100.0%      0.0%      0.0%
 flops    19 x    19 x    15             24259200     100.0%      0.0%      0.0%
 flops    13 x    32 x    38             25039872     100.0%      0.0%      0.0%
 flops    32 x    13 x    38             25039872     100.0%      0.0%      0.0%
 flops    36 x    15 x    36             25505280     100.0%      0.0%      0.0%
 flops     2 x    15 x     2             25824960     100.0%      0.0%      0.0%
 flops     8 x    19 x    13             30983680     100.0%      0.0%      0.0%
 flops    19 x     8 x    13             30983680     100.0%      0.0%      0.0%
 flops    37 x    15 x    15             32167800     100.0%      0.0%      0.0%
 flops    38 x    32 x    38             34101504     100.0%      0.0%      0.0%
 flops    38 x    13 x    32             34904064     100.0%      0.0%      0.0%
 flops    38 x    32 x    13             34904064     100.0%      0.0%      0.0%
 flops     2 x    13 x    19             35728056     100.0%      0.0%      0.0%
 flops    19 x    13 x     2             35728056     100.0%      0.0%      0.0%
 flops     8 x    19 x    15             35750400     100.0%      0.0%      0.0%
 flops    19 x     8 x    15             35750400     100.0%      0.0%      0.0%
 flops    15 x    32 x    38             36115200     100.0%      0.0%      0.0%
 flops    32 x    15 x    38             36115200     100.0%      0.0%      0.0%
 flops    36 x    13 x    37             39757536     100.0%      0.0%      0.0%
 flops    37 x    13 x    36             39757536     100.0%      0.0%      0.0%
 flops     2 x    15 x    19             40889520     100.0%      0.0%      0.0%
 flops    19 x    15 x     2             40889520     100.0%      0.0%      0.0%
 flops    36 x    15 x    37             45874080     100.0%      0.0%      0.0%
 flops    37 x    15 x    36             45874080     100.0%      0.0%      0.0%
 flops    38 x    15 x    32             50342400     100.0%      0.0%      0.0%
 flops    38 x    32 x    15             50342400     100.0%      0.0%      0.0%
 flops     8 x     8 x    13             54046720     100.0%      0.0%      0.0%
 flops    19 x    13 x    19             56569422     100.0%      0.0%      0.0%
 flops     2 x    13 x     8             60173568     100.0%      0.0%      0.0%
 flops     8 x    13 x     2             60173568     100.0%      0.0%      0.0%
 flops     8 x     8 x    15             62361600     100.0%      0.0%      0.0%
 flops    19 x    15 x    19             64741740     100.0%      0.0%      0.0%
 flops     2 x    15 x     8             68866560     100.0%      0.0%      0.0%
 flops     8 x    15 x     2             68866560     100.0%      0.0%      0.0%
 flops    37 x    13 x    37             71508346     100.0%      0.0%      0.0%
 flops    37 x    15 x    37             82509630     100.0%      0.0%      0.0%
 flops    13 x    32 x    36             94887936     100.0%      0.0%      0.0%
 flops    32 x    13 x    36             94887936     100.0%      0.0%      0.0%
 flops     8 x    13 x    19             95274816     100.0%      0.0%      0.0%
 flops    19 x    13 x     8             95274816     100.0%      0.0%      0.0%
 flops     8 x    15 x    19            109038720     100.0%      0.0%      0.0%
 flops    19 x    15 x     8            109038720     100.0%      0.0%      0.0%
 flops    32 x    32 x    13            116719616     100.0%      0.0%      0.0%
 flops    13 x    32 x    32            116719616     100.0%      0.0%      0.0%
 flops    32 x    13 x    32            116719616     100.0%      0.0%      0.0%
 flops    36 x    32 x    38            129226752     100.0%      0.0%      0.0%
 flops    38 x    32 x    36            129226752     100.0%      0.0%      0.0%
 flops    36 x    13 x    32            132268032     100.0%      0.0%      0.0%
 flops    36 x    32 x    13            132268032     100.0%      0.0%      0.0%
 flops    15 x    32 x    36            136857600     100.0%      0.0%      0.0%
 flops    32 x    15 x    36            136857600     100.0%      0.0%      0.0%
 flops     8 x    13 x     8            160462848     100.0%      0.0%      0.0%
 flops     2 x     2 x    32            166440960     100.0%      0.0%      0.0%
 flops    13 x    32 x    37            170666496     100.0%      0.0%      0.0%
 flops    32 x    13 x    37            170666496     100.0%      0.0%      0.0%
 flops     8 x    15 x     8            183644160     100.0%      0.0%      0.0%
 flops    36 x    15 x    32            190771200     100.0%      0.0%      0.0%
 flops    36 x    32 x    15            190771200     100.0%      0.0%      0.0%
 flops    32 x    32 x    15            210432000     100.0%      0.0%      0.0%
 flops    15 x    32 x    32            210432000     100.0%      0.0%      0.0%
 flops    32 x    15 x    32            210432000     100.0%      0.0%      0.0%
 flops    37 x    32 x    38            232428672     100.0%      0.0%      0.0%
 flops    38 x    32 x    37            232428672     100.0%      0.0%      0.0%
 flops    37 x    32 x    13            237898752     100.0%      0.0%      0.0%
 flops    37 x    13 x    32            237898752     100.0%      0.0%      0.0%
 flops    15 x    32 x    37            246153600     100.0%      0.0%      0.0%
 flops    32 x    15 x    37            246153600     100.0%      0.0%      0.0%
 flops    19 x     2 x    32            257402880     100.0%      0.0%      0.0%
 flops     2 x    19 x    32            257402880     100.0%      0.0%      0.0%
 flops    37 x    32 x    15            343123200     100.0%      0.0%      0.0%
 flops    37 x    15 x    32            343123200     100.0%      0.0%      0.0%
 flops     8 x     2 x    32            433520640     100.0%      0.0%      0.0%
 flops     2 x     8 x    32            433520640     100.0%      0.0%      0.0%
 flops    19 x    19 x    32            465776640     100.0%      0.0%      0.0%
 flops    36 x    32 x    36            489701376     100.0%      0.0%      0.0%
 flops     2 x    32 x     2            497645568     100.0%      0.0%      0.0%
 flops    32 x    32 x    38            631775232     100.0%      0.0%      0.0%
 flops     8 x    19 x    32            686407680     100.0%      0.0%      0.0%
 flops    19 x     8 x    32            686407680     100.0%      0.0%      0.0%
 flops    19 x    32 x     2            787938816     100.0%      0.0%      0.0%
 flops     2 x    32 x    19            787938816     100.0%      0.0%      0.0%
 flops    38 x    32 x    32            880656384     100.0%      0.0%      0.0%
 flops    37 x    32 x    36            880782336     100.0%      0.0%      0.0%
 flops    36 x    32 x    37            880782336     100.0%      0.0%      0.0%
 flops     8 x     8 x    32           1197342720     100.0%      0.0%      0.0%
 flops    19 x    32 x    19           1247569792     100.0%      0.0%      0.0%
 flops     8 x    32 x     2           1327054848     100.0%      0.0%      0.0%
 flops     2 x    32 x     8           1327054848     100.0%      0.0%      0.0%
 flops    37 x    32 x    37           1584184896     100.0%      0.0%      0.0%
 flops    19 x    32 x     8           2101170176     100.0%      0.0%      0.0%
 flops     8 x    32 x    19           2101170176     100.0%      0.0%      0.0%
 flops    32 x    32 x    36           2394095616     100.0%      0.0%      0.0%
 flops    36 x    32 x    32           3337224192     100.0%      0.0%      0.0%
 flops    32 x    32 x    32           3393847296     100.0%      0.0%      0.0%
 flops     8 x    32 x     8           3538812928     100.0%      0.0%      0.0%
 flops    32 x    32 x    37           4306046976     100.0%      0.0%      0.0%
 flops    37 x    32 x    32           6002368512     100.0%      0.0%      0.0%
 flops inhomo. stacks                           0       0.0%      0.0%      0.0%
 flops total                        50.715930E+09     100.0%      0.0%      0.0%
 flops max/rank                      1.130211E+09     100.0%      0.0%      0.0%
 matmuls inhomo. stacks                         0       0.0%      0.0%      0.0%
 matmuls total                           11135196     100.0%      0.0%      0.0%
 number of processed stacks               2527034     100.0%      0.0%      0.0%
 average stack size                                     4.4       0.0       0.0
 marketing flops                    55.599890E+09
 -------------------------------------------------------------------------------
 # multiplications                           1987
 max memory usage/rank             445.968384E+06
 # max total images/rank                        1
 # max 3D layers                                1
 # MPI messages exchanged                 6294816
 MPI messages size (bytes):
  total size                        21.479264E+09
  min size                           0.000000E+00
  max size                          11.552000E+03
  average size                       3.412215E+03
 MPI breakdown and total messages size (bytes):
             size <=      128             3776971                        0
       128 < size <=     8192              816101               4745918760
      8192 < size <=    32768             1701744              16733349864
     32768 < size <=   131072                   0                        0
    131072 < size <=  4194304                   0                        0
   4194304 < size <= 16777216                   0                        0
  16777216 < size                               0                        0
 -------------------------------------------------------------------------------

 MEMORY| Estimated peak process memory [MiB]                                 426

 -------------------------------------------------------------------------------
 ----                             MULTIGRID INFO                            ----
 -------------------------------------------------------------------------------
 count for grid        1:        2403217          cutoff [a.u.]          250.00
 count for grid        2:         881855          cutoff [a.u.]           83.33
 count for grid        3:         416609          cutoff [a.u.]           27.78
 count for grid        4:         123223          cutoff [a.u.]            9.26
 count for grid        5:           1440          cutoff [a.u.]            3.09
 total gridlevel count  :        3826344

 -------------------------------------------------------------------------------
 -                                                                             -
 -                         MESSAGE PASSING PERFORMANCE                         -
 -                                                                             -
 -------------------------------------------------------------------------------

 ROUTINE             CALLS      AVE VOLUME [Bytes]
 MP_Group               30
 MP_Bcast             1095                 297872.
 MP_Allreduce         6020                    713.
 MP_Sync               721
 MP_Alltoall          7875                1386809.
 MP_ISendRecv       148434                  44314.
 MP_Wait            393242
 MP_comm_split           2
 MP_ISend           115696                  54656.
 MP_IRecv           115696                  54391.
 MP_Recv                88                  47628.
 MP_Memory           79498
 -------------------------------------------------------------------------------


 -------------------------------------------------------------------------------
 -                                                                             -
 -                           R E F E R E N C E S                               -
 -                                                                             -
 -------------------------------------------------------------------------------
 
 CP2K version 5.1, the CP2K developers group (2017).
 CP2K is freely available from https://www.cp2k.org/ .

 Schuett, Ole; Messmer, Peter; Hutter, Juerg; VandeVondele, Joost. 
 Electronic Structure Calculations on Graphics Processing Units, John Wiley & Sons, Ltd, 173-190 (2016). 
 GPU-Accelerated Sparse Matrix-Matrix Multiplication for Linear Scaling Density Functional Theory.
 http://dx.doi.org/10.1002/9781118670712.ch8


 Borstnik, U; VandeVondele, J; Weber, V; Hutter, J. 
 PARALLEL COMPUTING, 40 (5-6), 47-58 (2014). 
 Sparse matrix multiplication: The distributed block-compressed sparse
 row library.
 http://dx.doi.org/10.1016/j.parco.2014.03.012


 Hutter, J; Iannuzzi, M; Schiffmann, F; VandeVondele, J. 
 WILEY INTERDISCIPLINARY REVIEWS-COMPUTATIONAL MOLECULAR SCIENCE, 4 (1), 15-25 (2014). 
 CP2K: atomistic simulations of condensed matter systems.
 http://dx.doi.org/10.1002/wcms.1159


 Guidon, M; Hutter, J; VandeVondele, J. 
 JOURNAL OF CHEMICAL THEORY AND COMPUTATION, 5 (11), 3010-3021 (2009). 
 Robust Periodic Hartree-Fock Exchange for Large-Scale Simulations Using
 Gaussian Basis Sets.
 http://dx.doi.org/10.1021/ct900494g


 Guidon, M; Schiffmann, F; Hutter, J; VandeVondele, J. 
 JOURNAL OF CHEMICAL PHYSICS, 128 (21), 214104 (2008). 
 Ab initio molecular dynamics using hybrid density functionals.
 http://dx.doi.org/10.1063/1.2931945


 Krack, M. 
 THEORETICAL CHEMISTRY ACCOUNTS, 114 (1-3), 145-152 (2005). 
 Pseudopotentials for H to Kr optimized for gradient-corrected
 exchange-correlation functionals.
 http://dx.doi.org/10.1007/s00214-005-0655-y


 VandeVondele, J; Krack, M; Mohamed, F; Parrinello, M; Chassaing, T;
 Hutter, J. COMPUTER PHYSICS COMMUNICATIONS, 167 (2), 103-128 (2005). 
 QUICKSTEP: Fast and accurate density functional calculations using a
 mixed Gaussian and plane waves approach.
 http://dx.doi.org/10.1016/j.cpc.2004.12.014


 Frigo, M; Johnson, SG. 
 PROCEEDINGS OF THE IEEE, 93 (2), 216-231 (2005). 
 The design and implementation of FFTW3.
 http://dx.doi.org/10.1109/JPROC.2004.840301


 VandeVondele, J; Hutter, J. 
 JOURNAL OF CHEMICAL PHYSICS, 118 (10), 4365-4369 (2003). 
 An efficient orbital transformation method for electronic structure
 calculations.
 http://dx.doi.org/10.1063/1.1543154


 Hartwigsen, C; Goedecker, S; Hutter, J. 
 PHYSICAL REVIEW B, 58 (7), 3641-3662 (1998). 
 Relativistic separable dual-space Gaussian pseudopotentials from H to Rn.
 http://dx.doi.org/10.1103/PhysRevB.58.3641


 Lippert, G; Hutter, J; Parrinello, M. 
 MOLECULAR PHYSICS, 92 (3), 477-487 (1997). 
 A hybrid Gaussian and plane wave density functional scheme.
 http://dx.doi.org/10.1080/002689797170220


 Goedecker, S; Teter, M; Hutter, J. 
 PHYSICAL REVIEW B, 54 (3), 1703-1710 (1996). 
 Separable dual-space Gaussian pseudopotentials.
 http://dx.doi.org/10.1103/PhysRevB.54.1703


 -------------------------------------------------------------------------------
 -                                                                             -
 -                                T I M I N G                                  -
 -                                                                             -
 -------------------------------------------------------------------------------
 SUBROUTINE                       CALLS  ASD         SELF TIME        TOTAL TIME
                                MAXIMUM       AVERAGE  MAXIMUM  AVERAGE  MAXIMUM
 CP2K                                 1  1.0    0.178    0.246  137.466  137.467
 qs_energies                          1  2.0    0.000    0.001  136.756  136.756
 scf_env_do_scf                       1  3.0    0.000    0.000  135.464  135.464
 qs_ks_update_qs_env                 80  5.0    0.000    0.001   91.709   91.724
 rebuild_ks_matrix                   79  6.0    0.000    0.000   91.702   91.717
 qs_ks_build_kohn_sham_matrix        79  7.0    0.008    0.008   91.702   91.717
 scf_env_do_scf_inner_loop           79  4.0    0.003    0.006   86.998   87.007
 hfx_ks_matrix                       79  8.0    0.001    0.001   69.510   69.586
 integrate_four_center               79  9.0    0.077    0.374   69.504   69.580
 integrate_four_center_main          79 10.0    0.010    0.012   62.285   64.948
 integrate_four_center_bin         5056 11.0   62.275   64.938   62.275   64.938
 init_scf_loop                        1  4.0    0.000    0.000   48.454   48.455
 qs_rho_update_rho                   80  5.0    0.000    0.001   42.150   42.157
 calculate_rho_elec                 160  6.0    1.560    4.859   42.150   42.157
 density_rs2pw                      160  7.0    0.008    0.009   37.892   38.886
 pw_transfer                       1559  8.9    0.066    0.081   32.461   32.659
 fft_wrap_pw1pw2                   1401  9.9    0.010    0.012   31.961   32.151
 fft_wrap_pw1pw2_250                441 10.5    1.680    1.790   26.394   26.641
 fft3d_ps                          1401 11.9   10.661   11.605   25.975   26.189
 rs_pw_transfer                    1204  9.0    0.013    0.018   21.675   22.588
 sum_up_and_integrate                40  8.0    0.000    0.001   17.372   17.374
 integrate_v_rspace                  80  9.0    0.952    3.012   17.372   17.374
 potential_pw2rs                     80 10.0    0.016    0.021   14.170   14.182
 mp_alltoall_z22v                  1401 13.9   11.236   12.107   11.236   12.107
 mp_sync                            721 10.9    5.556    8.682    5.556    8.682
 rs_pw_transfer_RS2PW_250           162  9.0    3.426    4.427    7.289    8.475
 yz_to_x                            401 12.6    1.257    1.354    7.728    8.237
 mp_waitany                       20328 11.0    6.401    7.883    6.401    7.883
 x_to_yz                            280 12.9    1.465    1.571    6.152    6.442
 mp_waitall_1                    372914 12.2    3.864    4.579    3.864    4.579
 fft_wrap_pw1pw2_90                 240 11.0    0.152    0.214    3.927    4.299
 rs_pw_transfer_RS2PW_90            160  9.0    1.583    1.893    3.013    3.658
 rs_pw_transfer_PW2RS_250            82 11.9    1.926    2.097    3.352    3.460
 mp_alltoall_d11v                   913 11.2    2.614    3.359    2.614    3.359
 rs_distribute_matrix               240  8.0    0.015    0.044    2.574    3.305
 rs_pw_transfer_RS2PW_30            160  9.0    1.428    1.582    2.946    3.115
 -------------------------------------------------------------------------------

 The number of warnings for this run is : 0
 
 -------------------------------------------------------------------------------
  **** **** ******  **  PROGRAM ENDED AT                 2019-07-13 19:43:23.657
 ***** ** ***  *** **   PROGRAM RAN ON            cpn-u26-09.cbls.ccr.buffalo.ed
 **    ****   ******    PROGRAM RAN BY                                  pavankum
 ***** **    ** ** **   PROGRAM PROCESS ID                                   827
  **** **  *******  **  PROGRAM STOPPED IN /projects/academic/mdupuis2/pavan/VAB
                                           _calculation/23.Fe_clust_paper/7units
                                           _dzv/GPW/largecell/point_0.6
