     270
 i =        1, E =     -8111.7509384272
 Ti        -0.0001572086        0.0017173079       -0.0012886962
 Ti         2.3107538086        2.3099338818        1.4899948577
 Ti         4.6230455970        0.0000844446       -0.0058038582
 Ti         6.9346368611        2.3116222242        1.5470735375
 Ti         9.2581014386       -0.0117979945       -0.0041356924
 Ti        11.5585571272        2.3133070905        1.4899949016
 Ti         0.0004415378        4.6215387295       -0.0012891522
 Ti         2.3108330220        6.9354186870        1.4901494873
 Ti         4.6111602998        4.6350236522       -0.0041306709
 Ti         6.9363197125        6.9354971019        1.4899947979
 Ti         9.2462010122        4.6231357102       -0.0058124482
 Ti        11.5622502320        6.9391925970        1.4924214561
 Ti         0.0001371252        9.2461715732        0.0006139944
 Ti         2.3070753417       11.5531483403        1.4924165050
 Ti         4.6246584040        9.2458496449       -0.0012897379
 Ti         6.9329635145       11.5568440787        1.4899952390
 Ti         9.2445883020        9.2464604494       -0.0012894741
 Ti        11.5584957828       11.5569240806        1.4901492836
 Ti         0.0000216185        0.0004687218        2.9815029132
 Ti         2.3107554844        2.3099338245        4.4732425809
 Ti         4.6015932284       -0.0213815970        2.9815049755
 Ti         6.9346365788        2.3116220600        4.4162146700
 Ti         9.2474321386       -0.0011281173        2.9815055989
 Ti        11.5585553195        2.3133072365        4.4732425828
 Ti         0.0002635613        4.6227867868        2.9815029709
 Ti         2.3108325319        6.9354191830        4.4730892765
 Ti         4.6218263609        4.6243574483        2.9815055279
 Ti         6.9363198851        6.9354954269        4.4732426868
 Ti         9.2676764846        4.6446108110        2.9815050842
 Ti        11.5622526410        6.9391950697        4.4708100425
 Ti         0.0001379372        9.2461717511        2.9815039909
 Ti         2.3070728083       11.5531457064        4.4708149568
 Ti         4.6234098511        9.2460279189        2.9815030600
 Ti         6.9329634561       11.5568457466        4.4732422167
 Ti         9.2458364479        9.2462821299        2.9815030861
 Ti        11.5584963105       11.5569234740        4.4730894683
 Ti        -0.0001577750        0.0017165179        5.9642076503
 Ti         2.3135931549        2.3100470049        7.4548342383
 Ti         4.6230357259        0.0000748372        5.9687381118
 Ti         6.9346102290        2.3115921797        7.4122649351
 Ti         9.2581001871       -0.0117966418        5.9670508493
 Ti        11.5557193902        2.3131917128        7.4548349744
 Ti         0.0004420045        4.6215396196        5.9642085752
 Ti         2.3145212224        6.9317304288        7.4545933500
 Ti         4.6111616857        4.6350222633        5.9670461837
 Ti         6.9362058870        6.9326604638        7.4548341766
 Ti         9.2462107647        4.6231452370        5.9687471236
 Ti        11.5545153843        6.9314580134        7.4644969785
 Ti         0.0001370818        9.2461716331        5.9623018160
 Ti         2.3148159319       11.5608897780        7.4645025410
 Ti         4.6246574527        9.2458491364        5.9642096410
 Ti         6.9330806814       11.5596775766        7.4548330936
 Ti         9.2445892015        9.2464607792        5.9642093889
 Ti        11.5548036354       11.5606155133        7.4545939999
 Ti         0.0002991613        0.0021802640        8.9454839513
 Ti         2.3230878319        2.3052779079       10.4350608128
 Ti         4.6735710178        0.0505984972        8.9340476025
 Ti         6.9346066426        2.3115576788       10.4351047628
 Ti         9.2328433652        0.0134618679        8.9842798721
 Ti        11.5462256697        2.3179612849       10.4350607783
 Ti        -0.0000163191        4.6210772401        8.9454845971
 Ti         2.2996948879        6.9465565322       10.4350604802
 Ti         4.6364265720        4.6097579751        8.9842817916
 Ti         6.9409753880        6.9231666539       10.4350607610
 Ti         9.1956301191        4.5725652379        8.9340463501
 Ti        11.5414897994        6.9184332738       10.4350589139
 Ti         0.0001395736        9.2461740678        8.9440668763
 Ti         2.3278468116       11.5739204372       10.4350590042
 Ti         4.6251212688        9.2463068095        8.9454850146
 Ti         6.9283155220       11.5691703471       10.4350607900
 Ti         9.2441265542        9.2460035460        8.9454850677
 Ti        11.5696365667       11.5457825034       10.4350605515
 Ti         0.0003002415        0.0021796853       11.9243997071
 Ti         2.3135885212        2.3100512725       13.4153804756
 Ti         4.6735557835        0.0505832124       11.9358377532
 Ti         6.9346102101        2.3115921833       13.4580216804
 Ti         9.2328454543        0.0134597870       11.8856059624
 Ti        11.5557247556        2.3131876796       13.4153797500
 Ti        -0.0000171192        4.6210778200       11.9243996743
 Ti         2.3145218192        6.9317301923       13.4156203563
 Ti         4.6364246666        4.6097599658       11.8856042170
 Ti         6.9362018442        6.9326658017       13.4153805203
 Ti         9.1956461763        4.5725814200       11.9358399705
 Ti        11.5545142705        6.9314568172       13.4057282805
 Ti         0.0001396171        9.2461741675       11.9258201247
 Ti         2.3148180257       11.5608919154       13.4057226733
 Ti         4.6251205863        9.2463077202       11.9243998064
 Ti         6.9330852347       11.5596730747       13.4153816214
 Ti         9.2441271240        9.2460027258       11.9243997324
 Ti        11.5548038295       11.5606164600       13.4156196579
  O         1.4045907331        1.4090798695        0.0036924576
  O         3.2158863576        3.2153369675        0.0058575873
  O         0.8992519345        3.7252218722        1.4924300569
  O         3.7329512570        0.9019724395        1.4908218970
  O         6.0687132738        1.4456763256       -0.0097166777
  O         7.8006025300        3.1775316142       -0.0097490692
  O         5.5240162358        3.7222062633        1.4887862707
  O         8.3452410624        0.9010357613        1.4887821457
  O        10.6534660835        1.4078988592        0.0058579222
  O        12.4647214446        3.2142927856        0.0036910308
  O        10.1363209715        3.7212768156        1.4908155008
  O        12.9699027099        0.8978861445        1.4924293673
  O         1.4056071400        6.0317880171        0.0022739826
  O         3.2144797292        7.8406996239        0.0022735840
  O         0.8983423690        8.3479395715        1.4930988221
  O         3.7227784571        5.5234480613        1.4986237497
  O         6.0309122550        6.0303656471        0.0058572634
  O         7.8372426830        7.8417358370        0.0036920980
  O         5.5209888918        8.3470440332        1.4924296166
  O         8.3443269944        5.5132557428        1.4908157005
  O        10.6577467974        6.0346685322        0.0064505686
  O        12.4605958029        7.8377340252        0.0016132753
  O        10.1440035221        8.3486732555        1.4915824348
  O        12.9715485057        5.5208154180        1.4915819979
  O         1.4086704888       10.6547850804        0.0016017211
  O         3.2116744704       12.4576100206        0.0064487655
  O         0.8975543590       12.9712520548        1.4915818275
  O         3.7253426200       10.1437224308        1.4915824323
  O         6.0320495150       10.6506364262        0.0036944617
  O         7.8385001752       12.4619126455        0.0058581239
  O         5.5248807441       12.9789514428        1.4908158629
  O         8.3483420832       10.1453507838        1.4924297475
  O        10.6548217177       10.6516777318        0.0022737161
  O        12.4637759149       12.4606298037        0.0022730702
  O        10.1464434637       12.9687597916        1.4986203373
  O        12.9708852393       10.1443169010        1.4930975088
  O         1.4078068203        1.4066981652        2.9815717677
  O         3.2188257145        3.2136058436        2.9815702351
  O         0.8992414645        3.7252306018        4.4705938794
  O         3.7329647422        0.9019585756        4.4722131705
  O         6.0037295510        1.3806944366        2.9815902847
  O         7.8656153842        3.2425428570        2.9815898901
  O         5.5240066827        3.7222154573        4.4742365235
  O         8.3452500699        0.9010264393        4.4742403829
  O        10.6505264161        1.4096305321        2.9815703592
  O        12.4615054607        3.2166756217        2.9815716795
  O        10.1363074504        3.7212907592        4.4722198157
  O        12.9699131347        0.8978775744        4.4705941322
  O         1.4073505269        6.0306583546        2.9815713730
  O         3.2156093411        7.8389559993        2.9815712127
  O         0.8983333392        8.3479486893        4.4699240835
  O         3.7227871304        5.5234392570        4.4644024102
  O         6.0326439482        6.0274257646        2.9815704066
  O         7.8396245545        7.8385189149        2.9815716074
  O         5.5209801173        8.3470545961        4.4705944105
  O         8.3443409589        5.5132421541        4.4722195884
  O        10.6618276990        6.0387495358        2.9815706681
  O        12.4656299861        7.8427678974        2.9815675674
  O        10.1439920590        8.3486815678        4.4714396480
  O        12.9715567303        5.5208039710        4.4714397620
  O         1.4036334241       10.6497472459        2.9815677004
  O         3.2075867483       12.4535237948        2.9815705593
  O         0.8975462802       12.9712635374        4.4714398308
  O         3.7253542135       10.1437142179        4.4714397849
  O         6.0296671870       10.6538538912        2.9815718731
  O         7.8367696276       12.4648512501        2.9815701265
  O         5.5248668125       12.9789649596        4.4722192074
  O         8.3483509276       10.1453402423        4.4705944701
  O        10.6536923345       10.6534209686        2.9815714250
  O        12.4620326607       12.4617593910        2.9815711241
  O        10.1464348959       12.9687682578        4.4644054601
  O        12.9708943109       10.1443079006        4.4699253269
  O         1.4044735553        1.4089623907        5.9593107948
  O         3.2160047417        3.2154550988        5.9571449466
  O         0.8975810227        3.7246767640        7.4517929944
  O         3.6889685114        0.8792729450        7.4236662426
  O         6.0685993189        1.4455623296        5.9727676168
  O         7.8007166196        3.1776456617        5.9727998609
  O         5.5072000874        3.7390275148        7.4431871910
  O         8.3620626368        0.8842187692        7.4431941856
  O        10.6533478141        1.4077805998        5.9571448791
  O        12.4648388178        3.2144099972        5.9593119717
  O        10.1803031739        3.7439656603        7.4236657788
  O        12.9715744452        0.8984310343        7.4517933483
  O         1.4054935984        6.0316679683        5.9607311328
  O         3.2145996085        7.8408132048        5.9607313607
  O         0.8975652269        8.3487177926        7.4517579157
  O         3.7275956743        5.5186292201        7.4693674175
  O         6.0307939932        6.0302473461        5.9571454596
  O         7.8373599886        7.8418532224        5.9593109043
  O         5.5215341410        8.3487157571        7.4517934793
  O         8.3670166235        5.5572395298        7.4236653259
  O        10.6576376742        6.0345592620        5.9565577164
  O        12.4607139767        7.8378520666        5.9613851516
  O        10.1456044669        8.3512362486        7.4513456553
  O        12.9741120830        5.5224171895        7.4513460874
  O         1.4085522147       10.6546668346        5.9613969319
  O         3.2117833834       12.4577189872        5.9565593541
  O         0.8949913134       12.9696513242        7.4513462821
  O         3.7237419307       10.1411600760        7.4513457671
  O         6.0319318162       10.6505192396        5.9593087712
  O         7.8386181393       12.4620310414        5.9571443787
  O         5.5021760064       12.9349426447        7.4236696107
  O         8.3477992500       10.1436777192        7.4517934668
  O        10.6547015513       10.6515640903        5.9607314607
  O        12.4638893384       12.4607495759        5.9607317936
  O        10.1416207616       12.9735766657        7.4693793199
  O        12.9716613733       10.1435429652        7.4517586163
  O         1.4028381662        1.4105154188        8.9429465597
  O         3.2043147191        3.2212661834        8.9389855838
  O         0.8994110576        3.7221645154       10.4349247231
  O         3.7146536553        0.8891384549       10.4349197344
  O         6.0007844316        1.3778799106        8.9337483740
  O         7.8683333371        3.2453637437        8.9337590230
  O         5.4868033332        3.7595607482       10.4349369359
  O         8.3826235004        0.8638049529       10.4349368546
  O        10.6650364594        1.4019691482        8.9389862494
  O        12.4664758289        3.2128561058        8.9429467643
  O        10.1546116573        3.7340933263       10.4349203994
  O        12.9697455677        0.9009432041       10.4349244070
  O         1.4040791321        6.0325151345        8.9422175765
  O         3.2137521195        7.8422279235        8.9422176994
  O         0.8921640726        8.3541192598       10.4349258887
  O         3.6886017461        5.5576211568       10.4349224507
  O         6.0249830833        6.0419365197        8.9389853494
  O         7.8358063437        7.8434907553        8.9429462012
  O         5.5240461390        8.3468864934       10.4349249827
  O         8.3571436530        5.5315477411       10.4349200990
  O        10.6380574588        6.0149817512        8.9375832799
  O        12.4627605360        7.8398963532        8.9504756494
  O        10.1467122706        8.3530274510       10.4349249263
  O        12.9759025936        5.5235258479       10.4349245355
  O         1.4065097018       10.6526232947        8.9504849095
  O         3.2313576026       12.4772912335        8.9375818892
  O         0.8932002952       12.9685425102       10.4349241009
  O         3.7226342719       10.1393689487       10.4349249337
  O         6.0334845065       10.6488848894        8.9429470853
  O         7.8444275463       12.4503391659        8.9389842520
  O         5.5120625496       12.9606438472       10.4349196287
  O         8.3452879279       10.1455064541       10.4349250179
  O        10.6555487542       10.6501491729        8.9422176527
  O        12.4653043316       12.4599020180        8.9422173060
  O        10.1806265777       12.9345769640       10.4349222475
  O        12.9770671749       10.1381384586       10.4349259821
  O         1.4028297026        1.4105054213       11.9270274681
  O         3.2043229103        3.2212746777       11.9309881176
  O         0.8974654014        3.7247968768       13.4181909749
  O         3.6890969210        0.8791667926       13.4463104687
  O         6.0007452526        1.3778383118       11.9363254323
  O         7.8683760656        3.2454037804       11.9363147747
  O         5.5070968047        3.7391310932       13.4267900834
  O         8.3621661083        0.8841157055       13.4267822299
  O        10.6650283193        1.4019607839       11.9309884918
  O        12.4664842245        3.2128663125       11.9270261835
  O        10.1801749691        3.7440718497       13.4463118035
  O        12.9716902135        0.8983107591       13.4181900619
  O         1.4040683239        6.0325072879       11.9277560948
  O         3.2137601924        7.8422389024       11.9277548877
  O         0.8974501182        8.3488329242       13.4182268932
  O         3.7277137798        5.5185113339       13.4006108518
  O         6.0249747286        6.0419283970       11.9309893550
  O         7.8358165343        7.8434991443       11.9270267630
  O         5.5214141685        8.3488314375       13.4181908486
  O         8.3671228278        5.5571115075       13.4463118535
  O        10.6380610320        6.0149853956       11.9323900888
  O        12.4627674238        7.8399032989       11.9194988779
  O        10.1454897933        8.3513562683       13.4186409672
  O        12.9742321750        5.5223024111       13.4186399345
  O         1.4065029725       10.6526165635       11.9194917650
  O         3.2313545433       12.4772881974       11.9323892967
  O         0.8948710538       12.9697658723       13.4186391767
  O         3.7238564260       10.1410399421       13.4186410625
  O         6.0334746214       10.6488764004       11.9270278510
  O         7.8444361059       12.4503473392       11.9309884961
  O         5.5020697656       12.9350711044       13.4463070255
  O         8.3479191718       10.1435621292       13.4181910241
  O        10.6555408893       10.6501383803       11.9277569387
  O        12.4653153023       12.4599101782       11.9277543761
  O        10.1415028983       12.9736947101       13.4005987350
  O        12.9717765068       10.1434276677       13.4182267117
     270
 i =        2, E =     -8111.7708723629
 Ti         0.0009212796       -0.0015870317       -0.0021607380
 Ti         2.3112945917        2.3128995439        1.4889842384
 Ti         4.6048141441       -0.0181828786       -0.0080631886
 Ti         6.9346520290        2.3116355486        1.4894778550
 Ti         9.2469767337       -0.0007773233       -0.0150986419
 Ti        11.5578826055        2.3103223369        1.4889887084
 Ti        -0.0007634502        4.6247313784       -0.0021638452
 Ti         2.3113159878        6.9349125386        1.4901206372
 Ti         4.6222237447        4.6239785000       -0.0150971746
 Ti         6.9333513220        6.9349203222        1.4889878118
 Ti         9.2644538948        4.6414335639       -0.0081284569
 Ti        11.5660304360        6.9430514544        1.4864610350
 Ti         0.0000960390        9.2461101970       -0.0039413212
 Ti         2.3032000376       11.5491972016        1.4865044841
 Ti         4.6214443684        9.2469745662       -0.0021596115
 Ti         6.9359236331       11.5573030553        1.4889831734
 Ti         9.2477816961        9.2452670007       -0.0021656363
 Ti        11.5578861470       11.5573088473        1.4901192354
 Ti        -0.0004516056        0.0002874394        2.9814410438
 Ti         2.3112980726        2.3129010235        4.4740706021
 Ti         4.6203735026       -0.0026029329        2.9814432454
 Ti         6.9346518838        2.3116352738        4.4736775169
 Ti         9.2518677690       -0.0056708912        2.9814477141
 Ti        11.5578787706        2.3103205008        4.4740659947
 Ti         0.0006135568        4.6228563799        2.9814411883
 Ti         2.3113148185        6.9349132267        4.4729301522
 Ti         4.6173389449        4.6288603178        2.9814477771
 Ti         6.9333494819        6.9349164918        4.4740668940
 Ti         9.2488870404        4.6258612172        2.9814433180
 Ti        11.5660282334        6.9430493598        4.4766031099
 Ti         0.0000638311        9.2460766859        2.9814423707
 Ti         2.3032016845       11.5491988683        4.4765601792
 Ti         4.6233167982        9.2456090821        2.9814413142
 Ti         6.9359249073       11.5573064220        4.4740715391
 Ti         9.2459053792        9.2466523883        2.9814413125
 Ti        11.5578866802       11.5573075454        4.4729314072
 Ti         0.0009231862       -0.0015891657        5.9649400967
 Ti         2.3100199868        2.3097415649        7.4553663234
 Ti         4.6047963529       -0.0182005018        5.9709073887
 Ti         6.9346329369        2.3116318334        7.4273017519
 Ti         9.2469906535       -0.0007926990        5.9779024966
 Ti        11.5592139296        2.3134517430        7.4553446865
 Ti        -0.0007666655        4.6247320797        5.9649433665
 Ti         2.3107802664        6.9354411436        7.4584914030
 Ti         4.6222084364        4.6239928296        5.9779008065
 Ti         6.9364719509        6.9362423106        7.4553519598
 Ti         9.2644711758        4.6414508481        5.9709729316
 Ti        11.5527362542        6.9297469830        7.4625696360
 Ti         0.0000953587        9.2461093669        5.9667242076
 Ti         2.3164509642       11.5624387289        7.4625261304
 Ti         4.6214424674        9.2469767588        5.9649394339
 Ti         6.9327683289       11.5560092628        7.4553662265
 Ti         9.2477824119        9.2452636772        5.9649454529
 Ti        11.5584152850       11.5567708875        7.4584922693
 Ti        -0.0012047552        0.0010799485        8.9457933871
 Ti         2.3100530597        2.3019046272       10.4349766972
 Ti         4.6633470725        0.0403514981        8.9456758452
 Ti         6.9346276767        2.3116185906       10.4349643798
 Ti         9.2433130586        0.0029282719        8.9588465903
 Ti        11.5591933402        2.3212858730       10.4349766914
 Ti         0.0013601046        4.6220663659        8.9457944194
 Ti         2.3069451406        6.9392692072       10.4349732610
 Ti         4.6259389145        4.6202970087        8.9588371527
 Ti         6.9443066688        6.9362109751       10.4349767549
 Ti         9.2057930519        4.5827811796        8.9457038319
 Ti        11.5453653436        6.9223705519       10.4349877981
 Ti         0.0000779231        9.2460879470        8.9475120663
 Ti         2.3237994295       11.5697794378       10.4349877971
 Ti         4.6241157675        9.2448387545        8.9457929979
 Ti         6.9249321526       11.5560372846       10.4349767492
 Ti         9.2451226128        9.2473794075        8.9457960290
 Ti        11.5622488150       11.5529280185       10.4349731952
 Ti        -0.0012037381        0.0010781804       11.9239750099
 Ti         2.3100137422        2.3097496072       13.4147081416
 Ti         4.6633506999        0.0403548542       11.9242058196
 Ti         6.9346332816        2.3116315690       13.4428149568
 Ti         9.2433075088        0.0029338252       11.9109641606
 Ti        11.5592211532        2.3134441982       13.4147297201
 Ti         0.0013590408        4.6220680821       11.9239741896
 Ti         2.3107765169        6.9354454472       13.4115748210
 Ti         4.6259443111        4.6202916695       11.9109738355
 Ti         6.9364644659        6.9362494749       13.4147226424
 Ti         9.2057901662        4.5827777703       11.9241788418
 Ti        11.5527438718        6.9297547331       13.4074925082
 Ti         0.0000780544        9.2460879509       11.9222489665
 Ti         2.3164442255       11.5624318221       13.4075359888
 Ti         4.6241139387        9.2448396612       11.9239756954
 Ti         6.9327764079       11.5560028737       13.4147083584
 Ti         9.2451243611        9.2473783565       11.9239727001
 Ti        11.5584196911       11.5567673081       13.4115739190
  O         1.4009588546        1.4088679131        0.0060992428
  O         3.2134303071        3.2192751144        0.0018072318
  O         0.8994000839        3.7253984371        1.4912590847
  O         3.7259390888        0.8985991636        1.4908187963
  O         6.0419633399        1.4189454175       -0.0268446371
  O         7.8273885137        3.2043471905       -0.0268528787
  O         5.5258220206        3.7204384993        1.4951489715
  O         8.3434827623        0.9028671152        1.4951537313
  O        10.6557860522        1.4039887927        0.0018145874
  O        12.4682238040        3.2143787300        0.0061085837
  O        10.1432056185        3.7246631482        1.4907996690
  O        12.9698405868        0.8978857588        1.4912607568
  O         1.4096050956        6.0284820545        0.0006434354
  O         3.2177962947        7.8365972045        0.0006381347
  O         0.8987679451        8.3475262542        1.4902921093
  O         3.7254148934        5.5208366554        1.4854056312
  O         6.0269862639        6.0328185434        0.0018165277
  O         7.8374289373        7.8452214993        0.0061016377
  O         5.5208330911        8.3468855878        1.4912640522
  O         8.3477079475        5.5202242490        1.4908025681
  O        10.6615670767        6.0385631479        0.0093194935
  O        12.4654227217        7.8423649546       -0.0033598678
  O        10.1450359495        8.3471480058        1.4929819578
  O        12.9700997152        5.5220443116        1.4929792219
  O         1.4038704331       10.6498477301       -0.0033026736
  O         3.2077084888       12.4537483086        0.0093238298
  O         0.8991586877       12.9701823235        1.4929765153
  O         3.7241926234       10.1451115232        1.4929757333
  O         6.0319168554       10.6469747082        0.0061053214
  O         7.8422468223       12.4594673944        0.0018006848
  O         5.5215693238       12.9719184757        1.4908251005
  O         8.3484422607       10.1453916871        1.4912566951
  O        10.6515120436       10.6556163352        0.0006436843
  O        12.4595668155       12.4637820269        0.0006361897
  O        10.1438715369       12.9714187262        1.4853997957
  O        12.9704919292       10.1447708462        1.4902920673
  O         1.4085832489        1.4052879218        2.9814366601
  O         3.2183021170        3.2171814694        2.9814345362
  O         0.8993971780        3.7254007352        4.4716141929
  O         3.7259435448        0.8985812269        4.4720722186
  O         6.0468320651        1.4238341917        2.9814643735
  O         7.8224585371        3.1994611954        2.9814643497
  O         5.5258108472        3.7204493426        4.4677455095
  O         8.3434936923        0.9028558660        4.4677405502
  O        10.6508517684        1.4061348491        2.9814347161
  O        12.4606697492        3.2178840063        2.9814363740
  O        10.1432008925        3.7246808051        4.4720914885
  O        12.9698434273        0.8978832456        4.4716123268
  O         1.4052213707        6.0304859245        2.9814345136
  O         3.2157658095        7.8410188120        2.9814343674
  O         0.8987656453        8.3475283690        4.4725831158
  O         3.7254157294        5.5208355779        4.4774825620
  O         6.0291254180        6.0278974063        2.9814346636
  O         7.8409420087        7.8376703358        2.9814364180
  O         5.5208305147        8.3468882646        4.4716093148
  O         8.3477256473        5.5202195891        4.4720884187
  O        10.6546599340        6.0316312785        2.9814442354
  O        12.4649643871        7.8418569127        2.9814397545
  O        10.1450352104        8.3471493079        4.4698869354
  O        12.9701011565        5.5220437550        4.4698894719
  O         1.4043068071       10.6502411319        2.9814403459
  O         3.2146896630       12.4606996711        2.9814443055
  O         0.8991570720       12.9701828342        4.4698920050
  O         3.7241929276       10.1451098539        4.4698932168
  O         6.0283367157       10.6546116067        2.9814366314
  O         7.8401693640       12.4643292131        2.9814344277
  O         5.5215513817       12.9719230023        4.4720658459
  O         8.3484444614       10.1453886969        4.4716167370
  O        10.6535143417       10.6512393489        2.9814344985
  O        12.4639999167       12.4617351948        2.9814342002
  O        10.1438703993       12.9714196587        4.4774883260
  O        12.9704940399       10.1447685506        4.4725832441
  O         1.4009286861        1.4087951158        5.9567513202
  O         3.2134815425        3.2193294341        5.9610536138
  O         0.8972645168        3.7248079163        7.4502374650
  O         3.7019907101        0.8975759547        7.4287996616
  O         6.0418715067        1.4188533932        5.9897632759
  O         7.8274810237        3.2044390998        5.9897716845
  O         5.5183686451        3.7276221420        7.4553006665
  O         8.3506231836        0.8953933885        7.4553200610
  O        10.6557328821        1.4039339531        5.9610464129
  O        12.4682526876        3.2144499813        5.9567416745
  O        10.1671792449        3.7255422104        7.4288426723
  O        12.9719793964        0.8984552221        7.4502345707
  O         1.4095658696        6.0284158629        5.9622042300
  O         3.2178613321        7.8366351823        5.9622092012
  O         0.8976405429        8.3486367021        7.4541481237
  O         3.7142337144        5.5319362756        7.4436357212
  O         6.0269310383        6.0327662312        5.9610445771
  O         7.8375002864        7.8452502645        5.9567487637
  O         5.5214012047        8.3490145303        7.4502309104
  O         8.3485384240        5.5441625538        7.4288341483
  O        10.6615044344        6.0385008723        5.9535437958
  O        12.4654823146        7.8424233969        5.9662054967
  O        10.1450655588        8.3490240299        7.4531827076
  O        12.9719865412        5.5220596914        7.4531863897
  O         1.4038103294       10.6497864202        5.9661489762
  O         3.2077697845       12.4538100947        5.9535391288
  O         0.8972664159       12.9701644252        7.4531890157
  O         3.7241759060       10.1431961131        7.4531915142