 DBCSR| Multiplication driver                                               BLAS
 DBCSR| Multrec recursion limit                                              512
 DBCSR| Multiplication stack size                                           1000
 DBCSR| Maximum elements for images                                    UNLIMITED
 DBCSR| Multiplicative factor virtual images                                   1
 DBCSR| Multiplication size stacks                                             3
 DBCSR| Number of 3D layers                                               SINGLE
 DBCSR| Use MPI memory allocation                                              T
 DBCSR| Use RMA algorithm                                                      F
 DBCSR| Use Communication thread                                               T
 DBCSR| Communication thread load                                             87


  **** **** ******  **  PROGRAM STARTED AT               2019-05-22 11:34:36.512
 ***** ** ***  *** **   PROGRAM STARTED ON        cpn-u25-12.cbls.ccr.buffalo.ed
 **    ****   ******    PROGRAM STARTED BY                              pavankum
 ***** **    ** ** **   PROGRAM PROCESS ID                                211922
  **** **  *******  **  PROGRAM STARTED IN /projects/academic/mdupuis2/pavan/VAB
                                           _calculation/23.Fe_clust_paper/7units
                                           _dzv/HF_with_excess/gopt_state1

 CP2K| version string:                                          CP2K version 5.1
 CP2K| source code revision number:                                    svn:18091
 CP2K| cp2kflags: libint fftw3 libxc parallel mpi3 scalapack has_no_shared_glibc
 CP2K|             max_contr=4
 CP2K| is freely available from                            https://www.cp2k.org/
 CP2K| Program compiled at                          Wed Mar 21 12:31:25 EDT 2018
 CP2K| Program compiled on                       srv-k07-14.cbls.ccr.buffalo.edu
 CP2K| Program compiled for                                                local
 CP2K| Data directory path    /projects/academic/mdupuis2/pavan/cp2k/cp2k-5.1/da
 CP2K| Input file name                                                 input.inp

 GLOBAL| Force Environment number                                              1
 GLOBAL| Basis set file name            /projects/academic/mdupuis2/pavan/BASIS_
 GLOBAL| Potential file name            /projects/academic/mdupuis2/pavan/POTENT
 GLOBAL| MM Potential file name                                     MM_POTENTIAL
 GLOBAL| Coordinate file name                                      elong_geo.xyz
 GLOBAL| Method name                                                        CP2K
 GLOBAL| Project name                                                      p_fe_
 GLOBAL| Preferred FFT library                                             FFTW3
 GLOBAL| Preferred diagonalization lib.                                       SL
 GLOBAL| Run type                                                        GEO_OPT
 GLOBAL| All-to-all communication in single precision                          F
 GLOBAL| FFTs using library dependent lengths                                  T
 GLOBAL| Global print level                                               MEDIUM
 GLOBAL| Total number of message passing processes                            64
 GLOBAL| Number of threads for this process                                    1
 GLOBAL| This output is from process                                           0
 GLOBAL| CPU model name :  Intel(R) Xeon(R) Gold 6130 CPU @ 2.10GHz

 MEMORY| system memory details [Kb]
 MEMORY|                        rank 0           min           max       average
 MEMORY| MemTotal            790943572     790794260     790943572     790868916
 MEMORY| MemFree             761740988     761740988     780776288     771258638
 MEMORY| Buffers                519076         49948        519076        284512
 MEMORY| Cached               17748796        645008      17748796       9196902
 MEMORY| Slab                   876256        421924        876256        649090
 MEMORY| SReclaimable           490424         86560        490424        288492
 MEMORY| MemLikelyFree       780499284     780499284     781557804     781028544


 *** Fundamental physical constants (SI units) ***

 *** Literature: B. J. Mohr and B. N. Taylor,
 ***             CODATA recommended values of the fundamental physical
 ***             constants: 2006, Web Version 5.1
 ***             http://physics.nist.gov/constants

 Speed of light in vacuum [m/s]                             2.99792458000000E+08
 Magnetic constant or permeability of vacuum [N/A**2]       1.25663706143592E-06
 Electric constant or permittivity of vacuum [F/m]          8.85418781762039E-12
 Planck constant (h) [J*s]                                  6.62606896000000E-34
 Planck constant (h-bar) [J*s]                              1.05457162825177E-34
 Elementary charge [C]                                      1.60217648700000E-19
 Electron mass [kg]                                         9.10938215000000E-31
 Electron g factor [ ]                                     -2.00231930436220E+00
 Proton mass [kg]                                           1.67262163700000E-27
 Fine-structure constant                                    7.29735253760000E-03
 Rydberg constant [1/m]                                     1.09737315685270E+07
 Avogadro constant [1/mol]                                  6.02214179000000E+23
 Boltzmann constant [J/K]                                   1.38065040000000E-23
 Atomic mass unit [kg]                                      1.66053878200000E-27
 Bohr radius [m]                                            5.29177208590000E-11

 *** Conversion factors ***

 [u] -> [a.u.]                                              1.82288848426455E+03
 [Angstrom] -> [Bohr] = [a.u.]                              1.88972613288564E+00
 [a.u.] = [Bohr] -> [Angstrom]                              5.29177208590000E-01
 [a.u.] -> [s]                                              2.41888432650478E-17
 [a.u.] -> [fs]                                             2.41888432650478E-02
 [a.u.] -> [J]                                              4.35974393937059E-18
 [a.u.] -> [N]                                              8.23872205491840E-08
 [a.u.] -> [K]                                              3.15774647902944E+05
 [a.u.] -> [kJ/mol]                                         2.62549961709828E+03
 [a.u.] -> [kcal/mol]                                       6.27509468713739E+02
 [a.u.] -> [Pa]                                             2.94210107994716E+13
 [a.u.] -> [bar]                                            2.94210107994716E+08
 [a.u.] -> [atm]                                            2.90362800883016E+08
 [a.u.] -> [eV]                                             2.72113838565563E+01
 [a.u.] -> [Hz]                                             6.57968392072181E+15
 [a.u.] -> [1/cm] (wave numbers)                            2.19474631370540E+05
 [a.u./Bohr**2] -> [1/cm]                                   5.14048714338585E+03
 

 CELL_TOP| Volume [angstrom^3]:                                         4811.625
 CELL_TOP| Vector a [angstrom    21.385     0.000     0.000    |a| =      21.385
 CELL_TOP| Vector b [angstrom     0.000    15.000     0.000    |b| =      15.000
 CELL_TOP| Vector c [angstrom     0.000     0.000    15.000    |c| =      15.000
 CELL_TOP| Angle (b,c), alpha [degree]:                                   90.000
 CELL_TOP| Angle (a,c), beta  [degree]:                                   90.000
 CELL_TOP| Angle (a,b), gamma [degree]:                                   90.000
 CELL_TOP| Numerically orthorhombic:                                         YES

 CELL| Volume [angstrom^3]:                                             4811.625
 CELL| Vector a [angstrom]:      21.385     0.000     0.000    |a| =      21.385
 CELL| Vector b [angstrom]:       0.000    15.000     0.000    |b| =      15.000
 CELL| Vector c [angstrom]:       0.000     0.000    15.000    |c| =      15.000
 CELL| Angle (b,c), alpha [degree]:                                       90.000
 CELL| Angle (a,c), beta  [degree]:                                       90.000
 CELL| Angle (a,b), gamma [degree]:                                       90.000
 CELL| Numerically orthorhombic:                                             YES

 CELL_REF| Volume [angstrom^3]:                                         4811.625
 CELL_REF| Vector a [angstrom    21.385     0.000     0.000    |a| =      21.385
 CELL_REF| Vector b [angstrom     0.000    15.000     0.000    |b| =      15.000
 CELL_REF| Vector c [angstrom     0.000     0.000    15.000    |c| =      15.000
 CELL_REF| Angle (b,c), alpha [degree]:                                   90.000
 CELL_REF| Angle (a,c), beta  [degree]:                                   90.000
 CELL_REF| Angle (a,b), gamma [degree]:                                   90.000
 CELL_REF| Numerically orthorhombic:                                         YES

 *******************************************************************************
 *******************************************************************************
 **                                                                           **
 **     #####                         ##              ##                      **
 **    ##   ##            ##          ##              ##                      **
 **   ##     ##                       ##            ######                    **
 **   ##     ##  ##   ##  ##   #####  ##  ##   ####   ##    #####    #####    **
 **   ##     ##  ##   ##  ##  ##      ## ##   ##      ##   ##   ##  ##   ##   **
 **   ##  ## ##  ##   ##  ##  ##      ####     ###    ##   ######   ######    **
 **    ##  ###   ##   ##  ##  ##      ## ##      ##   ##   ##       ##        **
 **     #######   #####   ##   #####  ##  ##  ####    ##    #####   ##        **
 **           ##                                                    ##        **
 **                                                                           **
 **                                                ... make the atoms dance   **
 **                                                                           **
 **            Copyright (C) by CP2K developers group (2000 - 2017)           **
 **                                                                           **
 *******************************************************************************

 DFT| Spin unrestricted (spin-polarized) Kohn-Sham calculation               UKS
 DFT| Multiplicity                                                            35
 DFT| Number of spin states                                                    2
 DFT| Charge                                                                   6
 DFT| Self-interaction correction (SIC)                                       NO
 DFT| Cutoffs: density                                              1.000000E-10
 DFT|          gradient                                             1.000000E-10
 DFT|          tau                                                  1.000000E-10
 DFT|          cutoff_smoothing_range                               0.000000E+00
 DFT| XC density smoothing                                                  NONE
 DFT| XC derivatives                                                          PW
 FUNCTIONAL| NO EXCHANGE-CORRELATION FUNCTIONAL USED.

 QS| Method:                                                                GAPW
 QS| Density plane wave grid type                        NON-SPHERICAL FULLSPACE
 QS| Number of grid levels:                                                    5
 QS| Density cutoff [a.u.]:                                                250.0
 QS| Multi grid cutoff [a.u.]: 1) grid level                               250.0
 QS|                           2) grid level                                83.3
 QS|                           3) grid level                                27.8
 QS|                           4) grid level                                 9.3
 QS|                           5) grid level                                 3.1
 QS| Grid level progression factor:                                          3.0
 QS| Relative density cutoff [a.u.]:                                        30.0
 QS| Consistent realspace mapping and integration 
 QS| Interaction thresholds: eps_pgf_orb:                                1.0E-10
 QS|                         eps_filter_matrix:                          0.0E+00
 QS|                         eps_core_charge:                            1.0E-14
 QS|                         eps_rho_gspace:                             1.0E-12
 QS|                         eps_rho_rspace:                             1.0E-12
 QS|                         eps_gvg_rspace:                             1.0E-06
 QS|                         eps_ppl:                                    1.0E-02
 QS|                         eps_ppnl:                                   1.0E-08
 QS| GAPW|                   eps_fit:                                    1.0E-04
 QS| GAPW|                   eps_iso:                                    1.0E-12
 QS| GAPW|                   eps_svd:                                    1.0E-08
 QS| GAPW|                   eps_cpc:                                    1.0E-12
 QS| GAPW|   atom-r-grid: quadrature:                 GC_LOG                        
 QS| GAPW|      atom-s-grid:  max l :                                          4
 QS| GAPW|      max_l_rho0 :                                                   2


 ATOMIC KIND INFORMATION

  1. Atomic kind: Fe                                    Number of atoms:       7

     Orbital Basis Set                                                   mod-DZV

       Number of orbital shell sets:                                           1
       Number of orbital shells:                                               7
       Number of primitive Cartesian functions:                                6
       Number of Cartesian basis functions:                                   21
       Number of spherical basis functions:                                   19
       Norm type:                                                              2

       Normalised Cartesian orbitals:

                        Set   Shell   Orbital            Exponent    Coefficient

                          1       1    2s                8.424366      -0.545589
                                                         4.825220      -0.832336
                                                         2.198939       0.958990
                                                         0.891661       0.416271
                                                         0.316231       0.012631
                                                         0.103474      -0.013505

                          1       2    3s                8.424366      -0.106056
                                                         4.825220      -0.104587
                                                         2.198939       0.052318
                                                         0.891661      -0.169042
                                                         0.316231       0.061854
                                                         0.103474       0.122891

                          1       3    4s                8.424366      -0.333477
                                                         4.825220      -0.289267
                                                         2.198939      -0.125861
                                                         0.891661      -1.004000
                                                         0.316231       0.780774
                                                         0.103474      -0.187846

                          1       4    3px               8.424366      -1.658234
                                                         4.825220       1.618912
                                                         2.198939       1.969078
                                                         0.891661       0.523780
                                                         0.316231       0.024574
                                                         0.103474      -0.000798
                          1       4    3py               8.424366      -1.658234
                                                         4.825220       1.618912
                                                         2.198939       1.969078
                                                         0.891661       0.523780
                                                         0.316231       0.024574
                                                         0.103474      -0.000798
                          1       4    3pz               8.424366      -1.658234
                                                         4.825220       1.618912
                                                         2.198939       1.969078
                                                         0.891661       0.523780
                                                         0.316231       0.024574
                                                         0.103474      -0.000798

                          1       5    4px               8.424366      -0.105249
                                                         4.825220      -0.126123
                                                         2.198939      -0.349657
                                                         0.891661      -0.133470
                                                         0.316231       0.170554
                                                         0.103474       0.054381
                          1       5    4py               8.424366      -0.105249
                                                         4.825220      -0.126123
                                                         2.198939      -0.349657
                                                         0.891661      -0.133470
                                                         0.316231       0.170554
                                                         0.103474       0.054381
                          1       5    4pz               8.424366      -0.105249
                                                         4.825220      -0.126123
                                                         2.198939      -0.349657
                                                         0.891661      -0.133470
                                                         0.316231       0.170554
                                                         0.103474       0.054381

                          1       6    4dx2              8.424366       7.918298
                                                         4.825220       5.112663
                                                         2.198939       2.118663
                                                         0.891661       0.465004
                                                         0.316231       0.065856
                                                         0.103474       0.002769
                          1       6    4dxy              8.424366      13.714895
                                                         4.825220       8.855393
                                                         2.198939       3.669632
                                                         0.891661       0.805411
                                                         0.316231       0.114066
                                                         0.103474       0.004796
                          1       6    4dxz              8.424366      13.714895
                                                         4.825220       8.855393
                                                         2.198939       3.669632
                                                         0.891661       0.805411
                                                         0.316231       0.114066
                                                         0.103474       0.004796
                          1       6    4dy2              8.424366       7.918298
                                                         4.825220       5.112663
                                                         2.198939       2.118663
                                                         0.891661       0.465004
                                                         0.316231       0.065856
                                                         0.103474       0.002769
                          1       6    4dyz              8.424366      13.714895
                                                         4.825220       8.855393
                                                         2.198939       3.669632
                                                         0.891661       0.805411
                                                         0.316231       0.114066
                                                         0.103474       0.004796
                          1       6    4dz2              8.424366       7.918298
                                                         4.825220       5.112663
                                                         2.198939       2.118663
                                                         0.891661       0.465004
                                                         0.316231       0.065856
                                                         0.103474       0.002769

                          1       7    5dx2              8.424366      -4.223614
                                                         4.825220      -1.970584
                                                         2.198939      -1.543490
                                                         0.891661      -0.041381
                                                         0.316231       0.082821
                                                         0.103474       0.021964
                          1       7    5dxy              8.424366      -7.315513
                                                         4.825220      -3.413151
                                                         2.198939      -2.673404
                                                         0.891661      -0.071673
                                                         0.316231       0.143450
                                                         0.103474       0.038042
                          1       7    5dxz              8.424366      -7.315513
                                                         4.825220      -3.413151
                                                         2.198939      -2.673404
                                                         0.891661      -0.071673
                                                         0.316231       0.143450
                                                         0.103474       0.038042
                          1       7    5dy2              8.424366      -4.223614
                                                         4.825220      -1.970584
                                                         2.198939      -1.543490
                                                         0.891661      -0.041381
                                                         0.316231       0.082821
                                                         0.103474       0.021964
                          1       7    5dyz              8.424366      -7.315513
                                                         4.825220      -3.413151
                                                         2.198939      -2.673404
                                                         0.891661      -0.071673
                                                         0.316231       0.143450
                                                         0.103474       0.038042
                          1       7    5dz2              8.424366      -4.223614
                                                         4.825220      -1.970584
                                                         2.198939      -1.543490
                                                         0.891661      -0.041381
                                                         0.316231       0.082821
                                                         0.103474       0.021964

     The atoms of this atomic kind are PAW atoms (GAPW):
       Hard Gaussian function radius:                                      1.512
       Rho0 radius:                                                        1.512
       Maximum GTO radius used for PAW projector construction:            24.566

     GAPW Soft Basis Set                                            mod-DZV_soft

       Number of orbital shell sets:                                           1
       Number of orbital shells:                                               7
       Number of primitive Cartesian functions:                                4
       Number of Cartesian basis functions:                                   21
       Number of spherical basis functions:                                   19
       Norm type:                                                              2

       Normalised Cartesian orbitals:

                        Set   Shell   Orbital            Exponent    Coefficient

                          1       1    2s                2.198939       0.958990
                                                         0.891661       0.416271
                                                         0.316231       0.012631
                                                         0.103474      -0.013505

                          1       2    3s                2.198939       0.052318
                                                         0.891661      -0.169042
                                                         0.316231       0.061854
                                                         0.103474       0.122891

                          1       3    4s                2.198939      -0.125861
                                                         0.891661      -1.004000
                                                         0.316231       0.780774
                                                         0.103474      -0.187846

                          1       4    3px               2.198939       1.969078
                                                         0.891661       0.523780
                                                         0.316231       0.024574
                                                         0.103474      -0.000798
                          1       4    3py               2.198939       1.969078
                                                         0.891661       0.523780
                                                         0.316231       0.024574
                                                         0.103474      -0.000798
                          1       4    3pz               2.198939       1.969078
                                                         0.891661       0.523780
                                                         0.316231       0.024574
                                                         0.103474      -0.000798

                          1       5    4px               2.198939      -0.349657
                                                         0.891661      -0.133470
                                                         0.316231       0.170554
                                                         0.103474       0.054381
                          1       5    4py               2.198939      -0.349657
                                                         0.891661      -0.133470
                                                         0.316231       0.170554
                                                         0.103474       0.054381
                          1       5    4pz               2.198939      -0.349657
                                                         0.891661      -0.133470
                                                         0.316231       0.170554
                                                         0.103474       0.054381

                          1       6    4dx2              2.198939       2.118663
                                                         0.891661       0.465004
                                                         0.316231       0.065856
                                                         0.103474       0.002769
                          1       6    4dxy              2.198939       3.669632
                                                         0.891661       0.805411
                                                         0.316231       0.114066
                                                         0.103474       0.004796
                          1       6    4dxz              2.198939       3.669632
                                                         0.891661       0.805411
                                                         0.316231       0.114066
                                                         0.103474       0.004796
                          1       6    4dy2              2.198939       2.118663
                                                         0.891661       0.465004
                                                         0.316231       0.065856
                                                         0.103474       0.002769
                          1       6    4dyz              2.198939       3.669632
                                                         0.891661       0.805411
                                                         0.316231       0.114066
                                                         0.103474       0.004796
                          1       6    4dz2              2.198939       2.118663
                                                         0.891661       0.465004
                                                         0.316231       0.065856
                                                         0.103474       0.002769

                          1       7    5dx2              2.198939      -1.543490
                                                         0.891661      -0.041381
                                                         0.316231       0.082821
                                                         0.103474       0.021964
                          1       7    5dxy              2.198939      -2.673404
                                                         0.891661      -0.071673
                                                         0.316231       0.143450
                                                         0.103474       0.038042
                          1       7    5dxz              2.198939      -2.673404
                                                         0.891661      -0.071673
                                                         0.316231       0.143450
                                                         0.103474       0.038042
                          1       7    5dy2              2.198939      -1.543490
                                                         0.891661      -0.041381
                                                         0.316231       0.082821
                                                         0.103474       0.021964
                          1       7    5dyz              2.198939      -2.673404
                                                         0.891661      -0.071673
                                                         0.316231       0.143450
                                                         0.103474       0.038042
                          1       7    5dz2              2.198939      -1.543490
                                                         0.891661      -0.041381
                                                         0.316231       0.082821
                                                         0.103474       0.021964

     GTH Potential information for                                  GTH-BLYP-q16

       Description:                       Goedecker-Teter-Hutter pseudopotential
                                           Goedecker et al., PRB 54, 1703 (1996)
                                          Hartwigsen et al., PRB 58, 3641 (1998)
                                                      Krack, TCA 114, 145 (2005)

       Gaussian exponent of the core charge distribution:               3.858025
       Electronic configuration (s p d ...):                           4   6   6

       Parameters of the local part of the GTH pseudopotential:

                          rloc        C1          C2          C3          C4
                        0.360000    7.011025   -0.222747

       Parameters of the non-local part of the GTH pseudopotential:

                   l      r(l)      h(i,j,l)

                   0    0.276205    0.611496    7.992357
                                    7.992357  -10.318089
                   1    0.247130   -8.710556    8.684169
                                    8.684169  -10.275248
                   2    0.223534  -12.411504

  2. Atomic kind: O                                     Number of atoms:      28

     Orbital Basis Set                                                   mod-DZV

       Number of orbital shell sets:                                           1
       Number of orbital shells:                                               4
       Number of primitive Cartesian functions:                                5
       Number of Cartesian basis functions:                                    8
       Number of spherical basis functions:                                    8
       Norm type:                                                              2

       Normalised Cartesian orbitals:

                        Set   Shell   Orbital            Exponent    Coefficient

                          1       1    2s               10.389228       0.396646
                                                         3.849621       0.208811
                                                         1.388401      -0.301641
                                                         0.496955      -0.274061
                                                         0.162492      -0.033677

                          1       2    3s               10.389228       0.303673
                                                         3.849621       0.240943
                                                         1.388401      -0.313066
                                                         0.496955      -0.043055
                                                         0.162492       0.213991

                          1       3    3px              10.389228      -1.530415
                                                         3.849621      -1.371928
                                                         1.388401      -0.761951
                                                         0.496955      -0.253695
                                                         0.162492      -0.035541
                          1       3    3py              10.389228      -1.530415
                                                         3.849621      -1.371928
                                                         1.388401      -0.761951
                                                         0.496955      -0.253695
                                                         0.162492      -0.035541
                          1       3    3pz              10.389228      -1.530415
                                                         3.849621      -1.371928
                                                         1.388401      -0.761951
                                                         0.496955      -0.253695
                                                         0.162492      -0.035541

                          1       4    4px              10.389228      -0.565392
                                                         3.849621      -0.038231
                                                         1.388401      -0.382373
                                                         0.496955       0.179070
                                                         0.162492       0.122714
                          1       4    4py              10.389228      -0.565392
                                                         3.849621      -0.038231
                                                         1.388401      -0.382373
                                                         0.496955       0.179070
                                                         0.162492       0.122714
                          1       4    4pz              10.389228      -0.565392
                                                         3.849621      -0.038231
                                                         1.388401      -0.382373
                                                         0.496955       0.179070
                                                         0.162492       0.122714

     The atoms of this atomic kind are PAW atoms (GAPW):
       Hard Gaussian function radius:                                      1.512
       Rho0 radius:                                                        1.512
       Maximum GTO radius used for PAW projector construction:            24.566

     GAPW Soft Basis Set                                            mod-DZV_soft

       Number of orbital shell sets:                                           1
       Number of orbital shells:                                               4
       Number of primitive Cartesian functions:                                4
       Number of Cartesian basis functions:                                    8
       Number of spherical basis functions:                                    8
       Norm type:                                                              2

       Normalised Cartesian orbitals:

                        Set   Shell   Orbital            Exponent    Coefficient

                          1       1    2s                3.849621       0.208811
                                                         1.388401      -0.301641
                                                         0.496955      -0.274061
                                                         0.162492      -0.033677

                          1       2    3s                3.849621       0.240943
                                                         1.388401      -0.313066
                                                         0.496955      -0.043055
                                                         0.162492       0.213991

                          1       3    3px               3.849621      -1.371928
                                                         1.388401      -0.761951
                                                         0.496955      -0.253695
                                                         0.162492      -0.035541
                          1       3    3py               3.849621      -1.371928
                                                         1.388401      -0.761951
                                                         0.496955      -0.253695
                                                         0.162492      -0.035541
                          1       3    3pz               3.849621      -1.371928
                                                         1.388401      -0.761951
                                                         0.496955      -0.253695
                                                         0.162492      -0.035541

                          1       4    4px               3.849621      -0.038231
                                                         1.388401      -0.382373
                                                         0.496955       0.179070
                                                         0.162492       0.122714
                          1       4    4py               3.849621      -0.038231
                                                         1.388401      -0.382373
                                                         0.496955       0.179070
                                                         0.162492       0.122714
                          1       4    4pz               3.849621      -0.038231
                                                         1.388401      -0.382373
                                                         0.496955       0.179070
                                                         0.162492       0.122714

     GTH Potential information for                                   GTH-BLYP-q6

       Description:                       Goedecker-Teter-Hutter pseudopotential
                                           Goedecker et al., PRB 54, 1703 (1996)
                                          Hartwigsen et al., PRB 58, 3641 (1998)
                                                      Krack, TCA 114, 145 (2005)

       Gaussian exponent of the core charge distribution:               8.438331
       Electronic configuration (s p d ...):                               2   4

       Parameters of the local part of the GTH pseudopotential:

                          rloc        C1          C2          C3          C4
                        0.243420  -16.991892    2.566142

       Parameters of the non-local part of the GTH pseudopotential:

                   l      r(l)      h(i,j,l)

                   0    0.220831   18.388851
                   1    0.217201

  3. Atomic kind: H                                     Number of atoms:      42

     Orbital Basis Set                                                   mod-DZV

       Number of orbital shell sets:                                           1
       Number of orbital shells:                                               2
       Number of primitive Cartesian functions:                                5
       Number of Cartesian basis functions:                                    2
       Number of spherical basis functions:                                    2
       Norm type:                                                              2

       Normalised Cartesian orbitals:

                        Set   Shell   Orbital            Exponent    Coefficient

                          1       1    2s               10.068468      -0.133023
                                                         2.680223      -0.177618
                                                         0.791502      -0.258419
                                                         0.239116      -0.107525
                                                         0.082193      -0.014019

                          1       2    3s               10.068468       0.344673
                                                         2.680223       1.819821
                                                         0.791502      -0.999069
                                                         0.239116       0.017430
                                                         0.082193       0.082660

     The atoms of this atomic kind are PAW atoms (GAPW):
       Hard Gaussian function radius:                                      1.200
       Rho0 radius:                                                        1.200
       Maximum GTO radius used for PAW projector construction:            24.566

     GAPW Soft Basis Set                                            mod-DZV_soft

       Number of orbital shell sets:                                           1
       Number of orbital shells:                                               2
       Number of primitive Cartesian functions:                                4
       Number of Cartesian basis functions:                                    2
       Number of spherical basis functions:                                    2
       Norm type:                                                              2

       Normalised Cartesian orbitals:

                        Set   Shell   Orbital            Exponent    Coefficient

                          1       1    2s                2.680223      -0.177618
                                                         0.791502      -0.258419
                                                         0.239116      -0.107525
                                                         0.082193      -0.014019

                          1       2    3s                2.680223       1.819821
                                                         0.791502      -0.999069
                                                         0.239116       0.017430
                                                         0.082193       0.082660

     GTH Potential information for                                   GTH-BLYP-q1

       Description:                       Goedecker-Teter-Hutter pseudopotential
                                           Goedecker et al., PRB 54, 1703 (1996)
                                          Hartwigsen et al., PRB 58, 3641 (1998)
                                                      Krack, TCA 114, 145 (2005)

       Gaussian exponent of the core charge distribution:              12.500000
       Electronic configuration (s p d ...):                                   1

       Parameters of the local part of the GTH pseudopotential:

                          rloc        C1          C2          C3          C4
                        0.200000   -4.195961    0.730498


 MOLECULE KIND INFORMATION


 All atoms are their own molecule, skipping detailed information


 TOTAL NUMBERS AND MAXIMUM NUMBERS

  Total number of            - Atomic kinds:                                   3
                             - Atoms:                                         77
                             - Shell sets:                                    77
                             - Shells:                                       245
                             - Primitive Cartesian functions:                392
                             - Cartesian basis functions:                    455
                             - Spherical basis functions:                    441

  Maximum angular momentum of- Orbital basis functions:                        2
                             - Local part of the GTH pseudopotential:          2
                             - Non-local part of the GTH pseudopotential:      3


 MODULE QUICKSTEP:  ATOMIC COORDINATES IN angstrom

  Atom  Kind  Element       X           Y           Z          Z(eff)       Mass

       1     1 Fe  26   18.334960   -0.000001    0.000001     16.00      55.8450
       2     1 Fe  26   15.279027   -0.000000    0.000000     16.00      55.8450
       3     1 Fe  26   12.202927    0.000000   -0.000002     16.00      55.8450
       4     1 Fe  26    9.169638    0.000001   -0.000003     16.00      55.8450
       5     1 Fe  26    6.135751    0.000000   -0.000000     16.00      55.8450
       6     1 Fe  26    3.059152   -0.000000    0.000001     16.00      55.8450
       7     1 Fe  26    0.003030   -0.000001    0.000002     16.00      55.8450
       8     2 O    8   18.328641   -0.000002    2.131995      6.00      15.9994
       9     2 O    8   18.328641    0.000001   -2.131992      6.00      15.9994
      10     2 O    8   19.861343   -1.262821    0.000007      6.00      15.9994
      11     2 O    8   19.861344    1.262820   -0.000005      6.00      15.9994
      12     2 O    8   15.281958   -0.000002    2.142832      6.00      15.9994
      13     2 O    8   15.281959    0.000001   -2.142832      6.00      15.9994
      14     2 O    8   16.818263   -1.262339   -0.000001      6.00      15.9994
      15     2 O    8   16.818264    1.262338    0.000002      6.00      15.9994
      16     2 O    8   12.263144    0.000004    2.167509      6.00      15.9994
      17     2 O    8   12.263145   -0.000002   -2.167514      6.00      15.9994
      18     2 O    8   13.785308   -1.258049   -0.000002      6.00      15.9994
      19     2 O    8   13.785309    1.258049   -0.000001      6.00      15.9994
      20     2 O    8    9.171554   -0.000004    2.284442      6.00      15.9994
      21     2 O    8    9.171552    0.000006   -2.284449      6.00      15.9994
      22     2 O    8   10.822577   -1.324222   -0.000001      6.00      15.9994
      23     2 O    8   10.822578    1.324223   -0.000006      6.00      15.9994
      24     2 O    8    6.073868   -0.000025    2.167529      6.00      15.9994
      25     2 O    8    6.073866    0.000025   -2.167530      6.00      15.9994
      26     2 O    8    7.516363   -1.323973   -0.000009      6.00      15.9994
      27     2 O    8    7.516362    1.323974    0.000006      6.00      15.9994
      28     2 O    8    3.053124   -0.000044    2.142515      6.00      15.9994
      29     2 O    8    3.053124    0.000043   -2.142512      6.00      15.9994
      30     2 O    8    4.553039   -1.257924   -0.000031      6.00      15.9994
      31     2 O    8    4.553039    1.257924    0.000032      6.00      15.9994
      32     2 O    8    0.005884   -0.000007    2.131846      6.00      15.9994
      33     2 O    8    0.005885    0.000005   -2.131843      6.00      15.9994
      34     2 O    8    1.519605   -1.262314   -0.000012      6.00      15.9994
      35     2 O    8    1.519605    1.262312    0.000015      6.00      15.9994
      36     3 H    1   18.259669   -0.796768   -2.671703      1.00       1.0079
      37     3 H    1   18.259668    0.796771   -2.671701      1.00       1.0079
      38     3 H    1   18.259681   -0.796773    2.671704      1.00       1.0079
      39     3 H    1   18.259656    0.796766    2.671704      1.00       1.0079
      40     3 H    1   19.861256   -2.223121   -0.000003      1.00       1.0079
      41     3 H    1   19.861256    2.223119    0.000005      1.00       1.0079
      42     3 H    1   15.100542   -0.795238   -2.658366      1.00       1.0079
      43     3 H    1   15.100542    0.795240   -2.658364      1.00       1.0079
      44     3 H    1   15.100553   -0.795243    2.658365      1.00       1.0079
      45     3 H    1   15.100529    0.795235    2.658364      1.00       1.0079
      46     3 H    1   16.804113   -2.222321   -0.000003      1.00       1.0079
      47     3 H    1   16.804114    2.222319    0.000004      1.00       1.0079
      48     3 H    1   12.042257   -0.797185   -2.663078      1.00       1.0079
      49     3 H    1   12.042255    0.797181   -2.663078      1.00       1.0079
      50     3 H    1   12.042258   -0.797180    2.663074      1.00       1.0079
      51     3 H    1   12.042248    0.797186    2.663072      1.00       1.0079
      52     3 H    1   13.743581   -2.216529   -0.000001      1.00       1.0079
      53     3 H    1   13.743583    2.216529   -0.000001      1.00       1.0079
      54     3 H    1    9.165440   -0.799164   -2.822083      1.00       1.0079
      55     3 H    1    9.165458    0.799178   -2.822081      1.00       1.0079
      56     3 H    1    9.165459   -0.799176    2.822074      1.00       1.0079
      57     3 H    1    9.165438    0.799167    2.822076      1.00       1.0079
      58     3 H    1   10.786487   -2.280224   -0.000003      1.00       1.0079
      59     3 H    1   10.786487    2.280226   -0.000004      1.00       1.0079
      60     3 H    1    6.286350   -0.797389   -2.666225      1.00       1.0079
      61     3 H    1    6.286366    0.797448   -2.666205      1.00       1.0079
      62     3 H    1    6.286366   -0.797448    2.666204      1.00       1.0079
      63     3 H    1    6.286350    0.797389    2.666225      1.00       1.0079
      64     3 H    1    7.552445   -2.279984   -0.000016      1.00       1.0079
      65     3 H    1    7.552444    2.279985    0.000013      1.00       1.0079
      66     3 H    1    3.227694   -0.795370   -2.660050      1.00       1.0079
      67     3 H    1    3.227572    0.795501   -2.660024      1.00       1.0079
      68     3 H    1    3.227574   -0.795501    2.660027      1.00       1.0079
      69     3 H    1    3.227691    0.795370    2.660052      1.00       1.0079
      70     3 H    1    4.594615   -2.216401   -0.000041      1.00       1.0079
      71     3 H    1    4.594614    2.216401    0.000042      1.00       1.0079
      72     3 H    1    0.067500   -0.796841   -2.672286      1.00       1.0079
      73     3 H    1    0.067401    0.796858   -2.672285      1.00       1.0079
      74     3 H    1    0.067407   -0.796860    2.672288      1.00       1.0079
      75     3 H    1    0.067493    0.796839    2.672288      1.00       1.0079
      76     3 H    1    1.533554   -2.222297   -0.000026      1.00       1.0079
      77     3 H    1    1.533553    2.222296    0.000029      1.00       1.0079




 SCF PARAMETERS         Density guess:                                   RESTART
                        --------------------------------------------------------
                        max_scf:                                            1000
                        max_scf_history:                                       0
                        max_diis:                                              4
                        --------------------------------------------------------
                        eps_scf:                                        1.00E-06
                        eps_scf_history:                                0.00E+00
                        eps_diis:                                       1.00E-01
                        eps_eigval:                                     1.00E-05
                        --------------------------------------------------------
                        level_shift [a.u.]:                                 0.00
                        --------------------------------------------------------
                        Outer loop SCF in use 
                        No variables optimised in outer loop
                        eps_scf                                         1.00E-06
                        max_scf                                              500
                        No outer loop optimization
                        step_size                                       5.00E-01

 PW_GRID| Information for grid number                                          1
 PW_GRID| Grid distributed over                                    64 processors
 PW_GRID| Real space group dimensions                                    64    1
 PW_GRID| the grid is blocked:                                                NO
 PW_GRID| Cutoff [a.u.]                                                    250.0
 PW_GRID| spherical cutoff:                                                   NO
 PW_GRID|   Bounds   1           -144     143                Points:         288
 PW_GRID|   Bounds   2           -105     104                Points:         210
 PW_GRID|   Bounds   3           -105     104                Points:         210
 PW_GRID| Volume element (a.u.^3)  0.2557E-02     Volume (a.u.^3)     32470.4554
 PW_GRID| Grid span                                                    FULLSPACE
 PW_GRID|   Distribution                         Average         Max         Min
 PW_GRID|   G-Vectors                           198450.0      198720      198432
 PW_GRID|   G-Rays                                 689.1         690         689
 PW_GRID|   Real Space Points                   198450.0      220500      176400

 PW_GRID| Information for grid number                                          2
 PW_GRID| Grid distributed over                                    64 processors
 PW_GRID| Real space group dimensions                                    64    1
 PW_GRID| the grid is blocked:                                                NO
 PW_GRID| Cutoff [a.u.]                                                     83.3
 PW_GRID| spherical cutoff:                                                   NO
 PW_GRID|   Bounds   1            -84      83                Points:         168
 PW_GRID|   Bounds   2            -60      59                Points:         120
 PW_GRID|   Bounds   3            -60      59                Points:         120
 PW_GRID| Volume element (a.u.^3)  0.1342E-01     Volume (a.u.^3)     32470.4554
 PW_GRID| Grid span                                                    FULLSPACE
 PW_GRID|   Distribution                         Average         Max         Min
 PW_GRID|   G-Vectors                            37800.0       37968       37632
 PW_GRID|   G-Rays                                 225.0         226         224
 PW_GRID|   Real Space Points                    37800.0       43200       28800

 PW_GRID| Information for grid number                                          3
 PW_GRID| Grid distributed over                                    64 processors
 PW_GRID| Real space group dimensions                                    64    1
 PW_GRID| the grid is blocked:                                                NO
 PW_GRID| Cutoff [a.u.]                                                     27.8
 PW_GRID| spherical cutoff:                                                   NO
 PW_GRID|   Bounds   1            -48      47                Points:          96
 PW_GRID|   Bounds   2            -35      34                Points:          70
 PW_GRID|   Bounds   3            -35      34                Points:          70
 PW_GRID| Volume element (a.u.^3)  0.6903E-01     Volume (a.u.^3)     32470.4554
 PW_GRID| Grid span                                                    FULLSPACE
 PW_GRID|   Distribution                         Average         Max         Min
 PW_GRID|   G-Vectors                             7350.0        7584        7104
 PW_GRID|   G-Rays                                  76.6          79          74
 PW_GRID|   Real Space Points                     7350.0        9800        4900

 PW_GRID| Information for grid number                                          4
 PW_GRID| Grid distributed over                                    64 processors
 PW_GRID| Real space group dimensions                                     8    8
 PW_GRID| the grid is blocked:                                                NO
 PW_GRID| Cutoff [a.u.]                                                      9.3
 PW_GRID| spherical cutoff:                                                   NO
 PW_GRID|   Bounds   1            -27      27                Points:          55
 PW_GRID|   Bounds   2            -20      19                Points:          40
 PW_GRID|   Bounds   3            -20      19                Points:          40
 PW_GRID| Volume element (a.u.^3)  0.3690         Volume (a.u.^3)     32470.4554
 PW_GRID| Grid span                                                    FULLSPACE
 PW_GRID|   Distribution                         Average         Max         Min
 PW_GRID|   G-Vectors                             1375.0        1430        1320
 PW_GRID|   G-Rays                                  25.0          26          24
 PW_GRID|   Real Space Points                     1375.0        1400        1200

 PW_GRID| Information for grid number                                          5
 PW_GRID| Grid distributed over                                    64 processors
 PW_GRID| Real space group dimensions                                     8    8
 PW_GRID| the grid is blocked:                                                NO
 PW_GRID| Cutoff [a.u.]                                                      3.1
 PW_GRID| spherical cutoff:                                                   NO
 PW_GRID|   Bounds   1            -16      15                Points:          32
 PW_GRID|   Bounds   2            -12      11                Points:          24
 PW_GRID|   Bounds   3            -12      11                Points:          24
 PW_GRID| Volume element (a.u.^3)   1.762         Volume (a.u.^3)     32470.4554
 PW_GRID| Grid span                                                    FULLSPACE
 PW_GRID|   Distribution                         Average         Max         Min
 PW_GRID|   G-Vectors                              288.0         320         256
 PW_GRID|   G-Rays                                   9.0          10           8
 PW_GRID|   Real Space Points                      288.0         288         288

 POISSON| Solver                                                        PERIODIC
 POISSON| Periodicity                                                        XYZ

 RS_GRID| Information for grid number                                          1
 RS_GRID|   Bounds   1           -144     143                Points:         288
 RS_GRID|   Bounds   2           -105     104                Points:         210
 RS_GRID|   Bounds   3           -105     104                Points:         210
 RS_GRID| Real space distribution over                                  4 groups
 RS_GRID| Real space distribution along direction                              1
 RS_GRID| Border size                                                         27
 RS_GRID| Real space distribution over                                  4 groups
 RS_GRID| Real space distribution along direction                              2
 RS_GRID| Border size                                                         27
 RS_GRID| Real space distribution over                                  4 groups
 RS_GRID| Real space distribution along direction                              3
 RS_GRID| Border size                                                         27
 RS_GRID|   Distribution                         Average         Max         Min
 RS_GRID|   Planes                                 126.0         126         126
 RS_GRID|   Distribution                         Average         Max         Min
 RS_GRID|   Planes                                 106.5         107         106
 RS_GRID|   Distribution                         Average         Max         Min
 RS_GRID|   Planes                                 106.5         107         106

 RS_GRID| Information for grid number                                          2
 RS_GRID|   Bounds   1            -84      83                Points:         168
 RS_GRID|   Bounds   2            -60      59                Points:         120
 RS_GRID|   Bounds   3            -60      59                Points:         120
 RS_GRID| Real space distribution over                                  4 groups
 RS_GRID| Real space distribution along direction                              1
 RS_GRID| Border size                                                         28
 RS_GRID| Real space distribution over                                  4 groups
 RS_GRID| Real space distribution along direction                              2
 RS_GRID| Border size                                                         28
 RS_GRID| Real space distribution over                                  4 groups
 RS_GRID| Real space distribution along direction                              3
 RS_GRID| Border size                                                         28
 RS_GRID|   Distribution                         Average         Max         Min
 RS_GRID|   Planes                                  98.0          98          98
 RS_GRID|   Distribution                         Average         Max         Min
 RS_GRID|   Planes                                  86.0          86          86
 RS_GRID|   Distribution                         Average         Max         Min
 RS_GRID|   Planes                                  86.0          86          86

 RS_GRID| Information for grid number                                          3
 RS_GRID|   Bounds   1            -48      47                Points:          96
 RS_GRID|   Bounds   2            -35      34                Points:          70
 RS_GRID|   Bounds   3            -35      34                Points:          70
 RS_GRID| Real space fully replicated
 RS_GRID| Group size                                                           1

 RS_GRID| Information for grid number                                          4
 RS_GRID|   Bounds   1            -27      27                Points:          55
 RS_GRID|   Bounds   2            -20      19                Points:          40
 RS_GRID|   Bounds   3            -20      19                Points:          40
 RS_GRID| Real space fully replicated
 RS_GRID| Group size                                                           1

 RS_GRID| Information for grid number                                          5
 RS_GRID|   Bounds   1            -16      15                Points:          32
 RS_GRID|   Bounds   2            -12      11                Points:          24
 RS_GRID|   Bounds   3            -12      11                Points:          24
 RS_GRID| Real space fully replicated
 RS_GRID| Group size                                                           1

 DISTRIBUTION OF THE PARTICLES (ROWS)
              Process row      Number of particles         Number of matrix rows
                        0                       10                            -1
                        1                       10                            -1
                        2                       10                            -1
                        3                       10                            -1
                        4                        7                            -1
                        5                       10                            -1
                        6                       10                            -1
                        7                       10                            -1
                      Sum                       77                            -1

 DISTRIBUTION OF THE PARTICLES (COLUMNS)
              Process col      Number of particles      Number of matrix columns
                        0                       10                            -1
                        1                       10                            -1
                        2                       10                            -1
                        3                       10                            -1
                        4                        7                            -1
                        5                       10                            -1
                        6                       10                            -1
                        7                       10                            -1
                      Sum                       77                            -1

  HFX_INFO| Replica ID:                                                        1
  HFX_INFO| EPS_SCHWARZ:                                                 1.0E-10
  HFX_INFO| EPS_SCHWARZ_FORCES                                           1.0E-06
  HFX_INFO| EPS_STORAGE_SCALING:                                         1.0E+00
  HFX_INFO| NBINS:                                                            64
  HFX_INFO| BLOCK_SIZE:                                                        1
  HFX_INFO| FRACTION:                                               1.0000000000
  HFX_INFO| Interaction Potential:                                     TRUNCATED
  HFX_INFO| Cutoff Radius [angstrom]:                               7.4998500000
  HFX_INFO| NUMBER_OF_SHELLS:                                               AUTO
  HFX_INFO| Number of periodic shells considered:                             -1
  HFX_INFO| Number of periodic cells considered:                              31


 *******************************************************************************
 ***                     STARTING GEOMETRY OPTIMIZATION                      ***
 ***                                   BFGS                                  ***
 *******************************************************************************

 DISTRIBUTION OF THE NEIGHBOR LISTS
              Total number of particle pairs:                               8210
              Total number of matrix elements:                            235630
              Average number of particle pairs:                              129
              Maximum number of particle pairs:                              184
              Average number of matrix element:                             3682
              Maximum number of matrix elements:                            5981


 DISTRIBUTION OF THE OVERLAP MATRIX
              Number  of non-zero blocks:                                   3003
              Percentage non-zero blocks:                                 100.00
              Average number of blocks per CPU:                               47
              Maximum number of blocks per CPU:                               67
              Average number of matrix elements per CPU:                    1565
              Maximum number of matrix elements per CPU:                    2389

 Spin 1

 Number of electrons:                                                        175
 Number of occupied orbitals:                                                175
 Number of molecular orbitals:                                               175

 Spin 2

 Number of electrons:                                                        141
 Number of occupied orbitals:                                                141
 Number of molecular orbitals:                                               141

 Number of orbital functions:                                                441
 Number of independent orbital functions:                                    441

 Extrapolation method: initial_guess


 SCF WAVEFUNCTION OPTIMIZATION

  ----------------------------------- OT ---------------------------------------
  Minimizer      : CG                  : conjugate gradient
  Preconditioner : FULL_KINETIC        : inversion of T + eS
  Precond_solver : DEFAULT
  Line search    : 2PNT                : 2 energies, one gradient
  stepsize       :    0.15000000                  energy_gap     :    0.20000000
  eps_taylor     :   0.10000E-15                  max_taylor     :             4
  ----------------------------------- OT ---------------------------------------

  Step     Update method      Time    Convergence         Total energy    Change
  ------------------------------------------------------------------------------

  HFX_MEM_INFO| Est. max. program size before HFX [MiB]:                     194
  HFX_MEM_INFO| Number of cart. primitive ERI's calculated:          71780539973
  HFX_MEM_INFO| Number of sph. ERI's calculated:                      4838695802
  HFX_MEM_INFO| Number of sph. ERI's stored in-core:                  4838695802
  HFX_MEM_INFO| Number of sph. ERI's stored on disk:                           0
  HFX_MEM_INFO| Number of sph. ERI's calculated on the fly:                    0
  HFX_MEM_INFO| Total memory consumption ERI's RAM [MiB]:                  12277
  HFX_MEM_INFO| Whereof max-vals [MiB]:                                        4
  HFX_MEM_INFO| Total compression factor ERI's RAM:                         3.01
  HFX_MEM_INFO| Total memory consumption ERI's disk [MiB]:                     0
  HFX_MEM_INFO| Total compression factor ERI's disk:                        0.00
  HFX_MEM_INFO| Size of density/Fock matrix [MiB]:                             0
  HFX_MEM_INFO| Size of buffers [MiB]:                                         1
  HFX_MEM_INFO| Number of periodic image cells considered:                    31
  HFX_MEM_INFO| Est. max. program size after HFX  [MiB]:                     399

     1 OT CG       0.15E+00  110.6     0.00000814     -1323.4669424773 -1.32E+03
     2 OT LS       0.44E+00    1.2                    -1323.4669436276
     3 OT CG       0.44E+00    1.5     0.00000893     -1323.4669445219 -2.04E-06
     4 OT LS       0.27E+00    1.2                    -1323.4669454559
     5 OT CG       0.27E+00    1.5     0.00000606     -1323.4669460410 -1.52E-06
     6 OT LS       0.46E+00    1.1                    -1323.4669470291
     7 OT CG       0.46E+00    1.4     0.00000698     -1323.4669472311 -1.19E-06
     8 OT LS       0.38E+00    1.2                    -1323.4669484524
     9 OT CG       0.38E+00    1.4     0.00000595     -1323.4669485177 -1.29E-06
    10 OT LS       0.45E+00    1.2                    -1323.4669496091
    11 OT CG       0.45E+00    1.4     0.00000702     -1323.4669496394 -1.12E-06
    12 OT LS       0.35E+00    1.2                    -1323.4669507308
    13 OT CG       0.35E+00    1.4     0.00000569     -1323.4669508382 -1.20E-06
    14 OT LS       0.37E+00    1.1                    -1323.4669516809
    15 OT CG       0.37E+00    1.5     0.00000535     -1323.4669516848 -8.47E-07
    16 OT LS       0.33E+00    1.1                    -1323.4669523167
    17 OT CG       0.33E+00    1.5     0.00000402     -1323.4669523320 -6.47E-07
    18 OT LS       0.30E+00    1.1                    -1323.4669526607
    19 OT CG       0.30E+00    1.4     0.00000283     -1323.4669526642 -3.32E-07
    20 OT LS       0.54E+00    1.2                    -1323.4669529038
    21 OT CG       0.54E+00    1.4     0.00000270     -1323.4669529670 -3.03E-07
    22 OT LS       0.40E+00    1.2                    -1323.4669531449
    23 OT CG       0.40E+00    1.4     0.00000274     -1323.4669531709 -2.04E-07
    24 OT LS       0.55E+00    1.1                    -1323.4669534350
    25 OT CG       0.55E+00    1.5     0.00000357     -1323.4669534551 -2.84E-07
    26 OT LS       0.48E+00    1.1                    -1323.4669538758
    27 OT CG       0.48E+00    1.5     0.00000440     -1323.4669538832 -4.28E-07
    28 OT LS       0.51E+00    1.2                    -1323.4669545683
    29 OT CG       0.51E+00    1.4     0.00000559     -1323.4669545704 -6.87E-07
    30 OT LS       0.48E+00    1.1                    -1323.4669556029
    31 OT CG       0.48E+00    1.6     0.00000592     -1323.4669556081 -1.04E-06
    32 OT LS       0.46E+00    1.2                    -1323.4669567414
    33 OT CG       0.46E+00    1.4     0.00000661     -1323.4669567421 -1.13E-06
    34 OT LS       0.43E+00    1.2                    -1323.4669580245
    35 OT CG       0.43E+00    1.6     0.00000654     -1323.4669580353 -1.29E-06
    36 OT LS       0.41E+00    1.1                    -1323.4669592517
    37 OT CG       0.41E+00    1.4     0.00000638     -1323.4669592536 -1.22E-06
    38 OT LS       0.41E+00    1.2                    -1323.4669604090
    39 OT CG       0.41E+00    1.4     0.00000624     -1323.4669604090 -1.16E-06
    40 OT LS       0.39E+00    1.1                    -1323.4669614704
    41 OT CG       0.39E+00    1.4     0.00000540     -1323.4669614722 -1.06E-06
    42 OT LS       0.38E+00    1.1                    -1323.4669622363
    43 OT CG       0.38E+00    1.4     0.00000439     -1323.4669622374 -7.65E-07
    44 OT LS       0.35E+00    1.1                    -1323.4669627108
    45 OT CG       0.35E+00    1.6     0.00000361     -1323.4669627129 -4.75E-07
    46 OT LS       0.38E+00    1.3                    -1323.4669630543
    47 OT CG       0.38E+00    1.4     0.00000309     -1323.4669630558 -3.43E-07
    48 OT LS       0.45E+00    1.1                    -1323.4669633473
    49 OT CG       0.45E+00    1.4     0.00000280     -1323.4669633546 -2.99E-07
    50 OT LS       0.37E+00    1.1                    -1323.4669635491
    51 OT CG       0.37E+00    1.5     0.00000283     -1323.4669635577 -2.03E-07
    52 OT LS       0.34E+00    1.2                    -1323.4669637443
    53 OT CG       0.34E+00    1.5     0.00000219     -1323.4669637464 -1.89E-07
    54 OT LS       0.44E+00    1.1                    -1323.4669638842
    55 OT CG       0.44E+00    1.4     0.00000186     -1323.4669638916 -1.45E-07
    56 OT LS       0.37E+00    1.1                    -1323.4669639790
    57 OT CG       0.37E+00    1.5     0.00000155     -1323.4669639816 -9.00E-08
    58 OT LS       0.29E+00    1.2                    -1323.4669640250
    59 OT CG       0.29E+00    1.5     0.00000115     -1323.4669640293 -4.77E-08
    60 OT LS       0.29E+00    1.2                    -1323.4669640560
    61 OT CG       0.29E+00    1.4     0.00000087     -1323.4669640560 -2.67E-08

  *** SCF run converged in    61 steps ***


  Electronic density on regular grids:       -304.2558999356       11.7441000644
  Core density on regular grids:              322.0000000000       -0.0000000000
  Hard and soft densities (Lebedev):         -493.3508311092     -481.6067319261
  Total Rho_soft + Rho1_hard - Rho1_soft     -315.9999991186
  Total charge density (r-space):               6.0000008814
  Total Rho_soft + Rho0_soft (g-space):         5.9999659687

  Overlap energy of the core charge distribution:               0.00000107775574
  Self energy of the core charge distribution:              -2631.59580429473499
  Core Hamiltonian energy:                                    746.57280187528283
  Hartree energy:                                            1358.69052847878220
  Exchange-correlation energy:                                  0.00000000000000
  Hartree-Fock Exchange energy:                              -192.40961326733344

  GAPW| Exc from hard and soft atomic rho1:                     0.00000000000000
  GAPW| local Eh = 1 center integrals:                       -604.72487792571746

  Total energy:                                             -1323.46696405596504

  outer SCF iter =    1 RMS gradient =   0.87E-06 energy =      -1323.4669640560
  outer SCF loop converged in   1 iterations or   61 steps


  Integrated absolute spin density  :                              21.9147689206
  Ideal and single determinant S**2 :                  306.000000     306.047287

 !-----------------------------------------------------------------------------!
                     Mulliken Population Analysis

 #  Atom  Element  Kind  Atomic population (alpha,beta) Net charge  Spin moment
       1     Fe       1         9.411326     4.669969     1.918705     4.741357
       2     Fe       1         9.415086     4.677332     1.907583     4.737754
       3     Fe       1         9.424742     4.701260     1.873998     4.723482
       4     Fe       1         9.159437     5.221072     1.619491     3.938364
       5     Fe       1         9.424400     4.700699     1.874901     4.723701
       6     Fe       1         9.414832     4.676932     1.908236     4.737900
       7     Fe       1         9.411227     4.669816     1.918957     4.741410
       8     O        2         3.308072     3.285711    -0.593783     0.022360
       9     O        2         3.308072     3.285711    -0.593783     0.022360
      10     O        2         3.508461     3.407582    -0.916043     0.100879
      11     O        2         3.508461     3.407582    -0.916043     0.100879
      12     O        2         3.308081     3.285858    -0.593939     0.022224
      13     O        2         3.308081     3.285858    -0.593939     0.022224
      14     O        2         3.508444     3.408336    -0.916780     0.100109
      15     O        2         3.508444     3.408336    -0.916780     0.100109
      16     O        2         3.308929     3.289012    -0.597941     0.019916
[...]
 flops    32 x    15 x    15            464472000     100.0%      0.0%      0.0%
 flops    36 x    13 x    36            470126592     100.0%      0.0%      0.0%
 flops     8 x     2 x    15            486864000     100.0%      0.0%      0.0%
 flops     2 x     8 x    15            486864000     100.0%      0.0%      0.0%
 flops     2 x    13 x     2            492028992     100.0%      0.0%      0.0%
 flops    15 x    15 x    37            494405100     100.0%      0.0%      0.0%
 flops    37 x    13 x    13            518161098     100.0%      0.0%      0.0%
 flops    19 x    19 x    15            523089000     100.0%      0.0%      0.0%
 flops    13 x    32 x    38            536460288     100.0%      0.0%      0.0%
 flops    32 x    13 x    38            536460288     100.0%      0.0%      0.0%
 flops    36 x    15 x    36            542453760     100.0%      0.0%      0.0%
 flops     2 x    15 x     2            564338880     100.0%      0.0%      0.0%
 flops     8 x    19 x    13            668085600     100.0%      0.0%      0.0%
 flops    19 x     8 x    13            668085600     100.0%      0.0%      0.0%
 flops    37 x    15 x    15            689859450     100.0%      0.0%      0.0%
 flops    38 x    32 x    38            725280768     100.0%      0.0%      0.0%
 flops    38 x    13 x    32            748540416     100.0%      0.0%      0.0%
 flops    38 x    32 x    13            748540416     100.0%      0.0%      0.0%
 flops     8 x    19 x    15            770868000     100.0%      0.0%      0.0%
 flops    19 x     8 x    15            770868000     100.0%      0.0%      0.0%
 flops    15 x    32 x    38            773740800     100.0%      0.0%      0.0%
 flops    32 x    15 x    38            773740800     100.0%      0.0%      0.0%
 flops     2 x    13 x    19            779045904     100.0%      0.0%      0.0%
 flops    19 x    13 x     2            779045904     100.0%      0.0%      0.0%
 flops    36 x    13 x    37            845574912     100.0%      0.0%      0.0%
 flops    37 x    13 x    36            845574912     100.0%      0.0%      0.0%
 flops     2 x    15 x    19            893536560     100.0%      0.0%      0.0%
 flops    19 x    15 x     2            893536560     100.0%      0.0%      0.0%
 flops    36 x    15 x    37            975663360     100.0%      0.0%      0.0%
 flops    37 x    15 x    36            975663360     100.0%      0.0%      0.0%
 flops    38 x    15 x    32           1079625600     100.0%      0.0%      0.0%
 flops    38 x    32 x    15           1079625600     100.0%      0.0%      0.0%
 flops     8 x     8 x    13           1165382400     100.0%      0.0%      0.0%
 flops    19 x    13 x    19           1233489348     100.0%      0.0%      0.0%
 flops     2 x    13 x     8           1312077312     100.0%      0.0%      0.0%
 flops     8 x    13 x     2           1312077312     100.0%      0.0%      0.0%
 flops     8 x     8 x    15           1344672000     100.0%      0.0%      0.0%
 flops    19 x    15 x    19           1414766220     100.0%      0.0%      0.0%
 flops     2 x    15 x     8           1504903680     100.0%      0.0%      0.0%
 flops     8 x    15 x     2           1504903680     100.0%      0.0%      0.0%
 flops    37 x    13 x    37           1520860432     100.0%      0.0%      0.0%
 flops    37 x    15 x    37           1754838960     100.0%      0.0%      0.0%
 flops    13 x    32 x    36           2032902144     100.0%      0.0%      0.0%
 flops    32 x    13 x    36           2032902144     100.0%      0.0%      0.0%
 flops     8 x    13 x    19           2077455744     100.0%      0.0%      0.0%
 flops    19 x    13 x     8           2077455744     100.0%      0.0%      0.0%
 flops     8 x    15 x    19           2382764160     100.0%      0.0%      0.0%
 flops    19 x    15 x     8           2382764160     100.0%      0.0%      0.0%
 flops    36 x    32 x    38           2748432384     100.0%      0.0%      0.0%
 flops    38 x    32 x    36           2748432384     100.0%      0.0%      0.0%
 flops    36 x    13 x    32           2836574208     100.0%      0.0%      0.0%
 flops    36 x    32 x    13           2836574208     100.0%      0.0%      0.0%
 flops    15 x    32 x    36           2932070400     100.0%      0.0%      0.0%
 flops    32 x    15 x    36           2932070400     100.0%      0.0%      0.0%
 flops    32 x    32 x    13           3207659520     100.0%      0.0%      0.0%
 flops    13 x    32 x    32           3207659520     100.0%      0.0%      0.0%
 flops    32 x    13 x    32           3207659520     100.0%      0.0%      0.0%
 flops     8 x    13 x     8           3498872832     100.0%      0.0%      0.0%
 flops     2 x     2 x    32           3588883200     100.0%      0.0%      0.0%
 flops    13 x    32 x    37           3656400384     100.0%      0.0%      0.0%
 flops    32 x    13 x    37           3656400384     100.0%      0.0%      0.0%
 flops     8 x    15 x     8           4013076480     100.0%      0.0%      0.0%
 flops    36 x    15 x    32           4091212800     100.0%      0.0%      0.0%
 flops    36 x    32 x    15           4091212800     100.0%      0.0%      0.0%
 flops    37 x    32 x    38           4943361024     100.0%      0.0%      0.0%
 flops    38 x    32 x    37           4943361024     100.0%      0.0%      0.0%
 flops    32 x    32 x    15           4954368000     100.0%      0.0%      0.0%
 flops    15 x    32 x    32           4954368000     100.0%      0.0%      0.0%
 flops    32 x    15 x    32           4954368000     100.0%      0.0%      0.0%
 flops    37 x    32 x    13           5101893888     100.0%      0.0%      0.0%
 flops    37 x    13 x    32           5101893888     100.0%      0.0%      0.0%
 flops    15 x    32 x    37           5273654400     100.0%      0.0%      0.0%
 flops    32 x    15 x    37           5273654400     100.0%      0.0%      0.0%
 flops    19 x     2 x    32           5550249600     100.0%      0.0%      0.0%
 flops     2 x    19 x    32           5550249600     100.0%      0.0%      0.0%
 flops    37 x    32 x    15           7358500800     100.0%      0.0%      0.0%
 flops    37 x    15 x    32           7358500800     100.0%      0.0%      0.0%
 flops     8 x     2 x    32           9347788800     100.0%      0.0%      0.0%
 flops     2 x     8 x    32           9347788800     100.0%      0.0%      0.0%
 flops    19 x    19 x    32          10043308800     100.0%      0.0%      0.0%
 flops    36 x    32 x    36          10415112192     100.0%      0.0%      0.0%
 flops     2 x    32 x     2          10864207872     100.0%      0.0%      0.0%
 flops    32 x    32 x    38          13535305728     100.0%      0.0%      0.0%
 flops     8 x    19 x    32          14800665600     100.0%      0.0%      0.0%
 flops    19 x     8 x    32          14800665600     100.0%      0.0%      0.0%
 flops    19 x    32 x     2          17201662464     100.0%      0.0%      0.0%
 flops     2 x    32 x    19          17201662464     100.0%      0.0%      0.0%
 flops    37 x    32 x    36          18732736512     100.0%      0.0%      0.0%
 flops    36 x    32 x    37          18732736512     100.0%      0.0%      0.0%
 flops    38 x    32 x    32          18886250496     100.0%      0.0%      0.0%
 flops     8 x     8 x    32          25817702400     100.0%      0.0%      0.0%
 flops    19 x    32 x    19          27235965568     100.0%      0.0%      0.0%
 flops     8 x    32 x     2          28971220992     100.0%      0.0%      0.0%
 flops     2 x    32 x     8          28971220992     100.0%      0.0%      0.0%
 flops    37 x    32 x    37          33692908032     100.0%      0.0%      0.0%
 flops    19 x    32 x     8          45871099904     100.0%      0.0%      0.0%
 flops     8 x    32 x    19          45871099904     100.0%      0.0%      0.0%
 flops    32 x    32 x    36          51291684864     100.0%      0.0%      0.0%
 flops    36 x    32 x    32          71568949248     100.0%      0.0%      0.0%
 flops     8 x    32 x     8          77256589312     100.0%      0.0%      0.0%
 flops    32 x    32 x    32          84429701120     100.0%      0.0%      0.0%
 flops    32 x    32 x    37          92253794304     100.0%      0.0%      0.0%
 flops    37 x    32 x    32         128724707328     100.0%      0.0%      0.0%
 flops inhomo. stacks                           0       0.0%      0.0%      0.0%
 flops total                         1.108340E+12     100.0%      0.0%      0.0%
 flops max/rank                     25.001699E+09     100.0%      0.0%      0.0%
 matmuls inhomo. stacks                         0       0.0%      0.0%      0.0%
 matmuls total                          242498264     100.0%      0.0%      0.0%
 number of processed stacks              55092079     100.0%      0.0%      0.0%
 average stack size                                     4.4       0.0       0.0
 marketing flops                     1.213168E+12
 -------------------------------------------------------------------------------
 # multiplications                          44913
 max memory usage/rank             532.365312E+06
 # max total images/rank                        1
 # max 3D layers                                1
 # MPI messages exchanged               142284384
 MPI messages size (bytes):
  total size                       471.512547E+09
  min size                           0.000000E+00
  max size                          11.552000E+03
  average size                       3.313874E+03
 MPI breakdown and total messages size (bytes):
             size <=      128            86731282                        0
       128 < size <=     8192            18878222             110710838128
      8192 < size <=    32768            36674880             360725172192
     32768 < size <=   131072                   0                        0
    131072 < size <=  4194304                   0                        0
   4194304 < size <= 16777216                   0                        0
  16777216 < size                               0                        0
 -------------------------------------------------------------------------------

 MEMORY| Estimated peak process memory [MiB]                                 508

 -------------------------------------------------------------------------------
 ----                             MULTIGRID INFO                            ----
 -------------------------------------------------------------------------------
 count for grid        1:        6243560          cutoff [a.u.]          250.00
 count for grid        2:        2402150          cutoff [a.u.]           83.33
 count for grid        3:        1114524          cutoff [a.u.]           27.78
 count for grid        4:         350116          cutoff [a.u.]            9.26
 count for grid        5:           1440          cutoff [a.u.]            3.09
 total gridlevel count  :       10111790

 -------------------------------------------------------------------------------
 -                                                                             -
 -                         MESSAGE PASSING PERFORMANCE                         -
 -                                                                             -
 -------------------------------------------------------------------------------

 ROUTINE             CALLS      AVE VOLUME [Bytes]
 MP_Group             2589
 MP_Bcast           136268                   3539.
 MP_Allreduce       444577                    130.
 MP_Sync             17615
 MP_Alltoall        205592                1594010.
 MP_ISendRecv      3204344                  44162.
 MP_Wait           8712954
 MP_comm_split        2047
 MP_ISend          2592446                  52449.
 MP_IRecv          2592446                  52183.
 MP_Recv              2178                  46874.
 MP_Memory         1795452
 -------------------------------------------------------------------------------


 -------------------------------------------------------------------------------
 -                                                                             -
 -                           R E F E R E N C E S                               -
 -                                                                             -
 -------------------------------------------------------------------------------
 
 CP2K version 5.1, the CP2K developers group (2017).
 CP2K is freely available from https://www.cp2k.org/ .

 Schuett, Ole; Messmer, Peter; Hutter, Juerg; VandeVondele, Joost. 
 Electronic Structure Calculations on Graphics Processing Units, John Wiley & Sons, Ltd, 173-190 (2016). 
 GPU-Accelerated Sparse Matrix-Matrix Multiplication for Linear Scaling Density Functional Theory.
 http://dx.doi.org/10.1002/9781118670712.ch8


 Borstnik, U; VandeVondele, J; Weber, V; Hutter, J. 
 PARALLEL COMPUTING, 40 (5-6), 47-58 (2014). 
 Sparse matrix multiplication: The distributed block-compressed sparse
 row library.
 http://dx.doi.org/10.1016/j.parco.2014.03.012


 Hutter, J; Iannuzzi, M; Schiffmann, F; VandeVondele, J. 
 WILEY INTERDISCIPLINARY REVIEWS-COMPUTATIONAL MOLECULAR SCIENCE, 4 (1), 15-25 (2014). 
 CP2K: atomistic simulations of condensed matter systems.
 http://dx.doi.org/10.1002/wcms.1159


 Guidon, M; Hutter, J; VandeVondele, J. 
 JOURNAL OF CHEMICAL THEORY AND COMPUTATION, 5 (11), 3010-3021 (2009). 
 Robust Periodic Hartree-Fock Exchange for Large-Scale Simulations Using
 Gaussian Basis Sets.
 http://dx.doi.org/10.1021/ct900494g


 Guidon, M; Schiffmann, F; Hutter, J; VandeVondele, J. 
 JOURNAL OF CHEMICAL PHYSICS, 128 (21), 214104 (2008). 
 Ab initio molecular dynamics using hybrid density functionals.
 http://dx.doi.org/10.1063/1.2931945


 Krack, M. 
 THEORETICAL CHEMISTRY ACCOUNTS, 114 (1-3), 145-152 (2005). 
 Pseudopotentials for H to Kr optimized for gradient-corrected
 exchange-correlation functionals.
 http://dx.doi.org/10.1007/s00214-005-0655-y


 VandeVondele, J; Krack, M; Mohamed, F; Parrinello, M; Chassaing, T;
 Hutter, J. COMPUTER PHYSICS COMMUNICATIONS, 167 (2), 103-128 (2005). 
 QUICKSTEP: Fast and accurate density functional calculations using a
 mixed Gaussian and plane waves approach.
 http://dx.doi.org/10.1016/j.cpc.2004.12.014


 Frigo, M; Johnson, SG. 
 PROCEEDINGS OF THE IEEE, 93 (2), 216-231 (2005). 
 The design and implementation of FFTW3.
 http://dx.doi.org/10.1109/JPROC.2004.840301


 Kolafa, J. 
 JOURNAL OF COMPUTATIONAL CHEMISTRY, 25 (3), 335-342 (2004). 
 Time-reversible always stable predictor-corrector method for molecular dynamics of polarizable molecules.
 http://dx.doi.org/10.1002/jcc.10385


 VandeVondele, J; Hutter, J. 
 JOURNAL OF CHEMICAL PHYSICS, 118 (10), 4365-4369 (2003). 
 An efficient orbital transformation method for electronic structure
 calculations.
 http://dx.doi.org/10.1063/1.1543154


 Hartwigsen, C; Goedecker, S; Hutter, J. 
 PHYSICAL REVIEW B, 58 (7), 3641-3662 (1998). 
 Relativistic separable dual-space Gaussian pseudopotentials from H to Rn.
 http://dx.doi.org/10.1103/PhysRevB.58.3641


 Lippert, G; Hutter, J; Parrinello, M. 
 MOLECULAR PHYSICS, 92 (3), 477-487 (1997). 
 A hybrid Gaussian and plane wave density functional scheme.
 http://dx.doi.org/10.1080/002689797170220


 Goedecker, S; Teter, M; Hutter, J. 
 PHYSICAL REVIEW B, 54 (3), 1703-1710 (1996). 
 Separable dual-space Gaussian pseudopotentials.
 http://dx.doi.org/10.1103/PhysRevB.54.1703


 -------------------------------------------------------------------------------
 -                                                                             -
 -                                T I M I N G                                  -
 -                                                                             -
 -------------------------------------------------------------------------------
 SUBROUTINE                       CALLS  ASD         SELF TIME        TOTAL TIME
                                MAXIMUM       AVERAGE  MAXIMUM  AVERAGE  MAXIMUM
 CP2K                                 1  1.0    0.013    0.017 5118.628 5118.628
 cp_geo_opt                           1  2.0    0.000    0.000 5118.148 5118.190
 geoopt_bfgs                          1  3.0    0.004    0.005 5118.148 5118.190
 cp_eval_at                          16  4.0    0.001    0.002 5116.807 5116.808
 qs_forces                           15  5.0    0.002    0.002 5009.288 5009.288
 rebuild_ks_matrix                 1709  9.9    0.004    0.004 4094.887 4095.012
 qs_ks_build_kohn_sham_matrix      1709 10.9    0.158    0.190 4094.884 4095.008
 hfx_ks_matrix                     1709 11.9    0.021    0.024 3593.762 3594.918
 qs_energies                         16  5.9    0.001    0.001 2748.009 2748.011
 scf_env_do_scf                      16  6.9    0.003    0.003 2733.093 2733.093
 qs_ks_update_qs_env_forces          15  6.0    0.000    0.000 2368.632 2368.634
 derivatives_four_center             15 10.0    0.070    0.350 2355.663 2355.670
 derivatives_four_center_main        15 11.0    0.008    0.011 2355.134 2355.141
 derivatives_four_center_bin        968 12.0 2240.848 2326.463 2240.848 2326.463
 scf_env_do_scf_inner_loop         1694  8.0    0.053    0.127 1966.537 1966.892
 qs_ks_update_qs_env               1711  9.0    0.010    0.011 1727.086 1727.245
 integrate_four_center             1709 12.9    1.704    2.346 1237.967 1239.119
 integrate_four_center_main        1709 13.9    0.210    0.252 1115.777 1165.823
 integrate_four_center_bin       109487 14.9 1115.567 1165.621 1115.567 1165.621
 qs_rho_update_rho                 1710  9.0    0.010    0.014  928.684  928.973
 calculate_rho_elec                3420 10.0   33.358  114.188  928.674  928.962
 density_rs2pw                     3420 11.0    0.176    0.223  827.724  848.993
 init_scf_loop                       17  7.9    0.000    0.000  766.156  766.159
 pw_transfer                      33524 12.8    1.427    1.659  703.837  707.013
 fft_wrap_pw1pw2                  30106 13.8    0.213    0.252  693.046  696.049
 fft_wrap_pw1pw2_250               9466 14.5   35.458   37.318  570.942  577.248
 fft3d_ps                         30106 15.8  226.413  246.502  565.879  570.621
 rs_pw_transfer                   25879 13.0    0.292    0.373  480.394  500.641
 sum_up_and_integrate               870 11.9    0.008    0.012  395.079  395.132
 integrate_v_rspace                1740 12.9   20.789   74.194  395.070  395.123
 potential_pw2rs                   1740 13.9    0.341    0.434  314.294  314.622
 mp_alltoall_z22v                 30106 17.8  252.183  266.818  252.183  266.818
 mp_sum_lv                          201  5.2  114.335  215.340  114.335  215.340
 rs_pw_transfer_RS2PW_250          3452 13.0   71.678   93.057  161.056  187.743
 yz_to_x                           8596 16.6   27.094   29.261  175.743  185.941
 mp_waitany                      436758 15.0  144.818  175.447  144.818  175.447
 mp_sync                          17615 14.8  108.519  152.067  108.519  152.067
 x_to_yz                           6030 16.8   31.449   33.574  133.149  138.677
 mp_waitall_1                   8276196 16.2   94.331  103.916   94.331  103.916
 -------------------------------------------------------------------------------

 The number of warnings for this run is : 0
 
 -------------------------------------------------------------------------------
  **** **** ******  **  PROGRAM ENDED AT                 2019-07-11 00:17:18.608
 ***** ** ***  *** **   PROGRAM RAN ON            cpn-u26-30.cbls.ccr.buffalo.ed
 **    ****   ******    PROGRAM RAN BY                                  pavankum
 ***** **    ** ** **   PROGRAM PROCESS ID                                 61812
  **** **  *******  **  PROGRAM STOPPED IN /projects/academic/mdupuis2/pavan/VAB
                                           _calculation/23.Fe_clust_paper/7units
                                           _dzv/GPW/largecell/gopt_state1
