 DBCSR| Multiplication driver                                               BLAS
 DBCSR| Multrec recursion limit                                              512
 DBCSR| Multiplication stack size                                           1000
 DBCSR| Maximum elements for images                                    UNLIMITED
 DBCSR| Multiplicative factor virtual images                                   1
 DBCSR| Multiplication size stacks                                             3
 DBCSR| Number of 3D layers                                               SINGLE
 DBCSR| Use MPI memory allocation                                              T
 DBCSR| Use RMA algorithm                                                      F
 DBCSR| Use Communication thread                                               T
 DBCSR| Communication thread load                                             87


  **** **** ******  **  PROGRAM STARTED AT               2019-07-30 17:17:02.834
 ***** ** ***  *** **   PROGRAM STARTED ON        cpn-u26-03.cbls.ccr.buffalo.ed
 **    ****   ******    PROGRAM STARTED BY                              pavankum
 ***** **    ** ** **   PROGRAM PROCESS ID                                243226
  **** **  *******  **  PROGRAM STARTED IN /projects/academic/mdupuis2/pavan/VAB
                                           _calculation/results_for_paper/3.1D_F
                                           e_7units/blyp_plusU9/gopt_state0

 CP2K| version string:                                          CP2K version 6.1
 CP2K| source code revision number:                                    svn:18464
 CP2K| cp2kflags: libint fftw3 libxc parallel mpi3 scalapack libderiv_max_am1=5 
 CP2K|            libint_max_am=6
 CP2K| is freely available from                            https://www.cp2k.org/
 CP2K| Program compiled at                          Fri Nov 30 14:17:09 EST 2018
 CP2K| Program compiled on                       srv-p22-12.cbls.ccr.buffalo.edu
 CP2K| Program compiled for                                                local
 CP2K| Data directory path    /projects/academic/mdupuis2/pavan/cp2k/cp2k-6.1/da
 CP2K| Input file name                                                 input.inp

 GLOBAL| Force Environment number                                              1
 GLOBAL| Basis set file name            /projects/academic/mdupuis2/pavan/BASIS_
 GLOBAL| Potential file name            /projects/academic/mdupuis2/pavan/POTENT
 GLOBAL| MM Potential file name                                     MM_POTENTIAL
 GLOBAL| Coordinate file name                                           opt0.xyz
 GLOBAL| Method name                                                        CP2K
 GLOBAL| Project name                                                      p_fe_
 GLOBAL| Preferred FFT library                                             FFTW3
 GLOBAL| Preferred diagonalization lib.                                       SL
 GLOBAL| Run type                                                        GEO_OPT
 GLOBAL| All-to-all communication in single precision                          F
 GLOBAL| FFTs using library dependent lengths                                  T
 GLOBAL| Global print level                                               MEDIUM
 GLOBAL| Total number of message passing processes                           144
 GLOBAL| Number of threads for this process                                    1
 GLOBAL| This output is from process                                           0
 GLOBAL| CPU model name :  Intel(R) Xeon(R) Gold 6126 CPU @ 2.60GHz

 MEMORY| system memory details [Kb]
 MEMORY|                        rank 0           min           max       average
 MEMORY| MemTotal            196307064     196307064     196307064     196307064
 MEMORY| MemFree             188796980     188796980     189343932     189160390
 MEMORY| Buffers                475928        475928        481584        478586
 MEMORY| Cached                1364140        914624       1364140       1055714
 MEMORY| Slab                   551844        536652        551844        540977
 MEMORY| SReclaimable           231976        223548        231976        226831
 MEMORY| MemLikelyFree       190869024     190869024     190969252     190921522


 *** Fundamental physical constants (SI units) ***

 *** Literature: B. J. Mohr and B. N. Taylor,
 ***             CODATA recommended values of the fundamental physical
 ***             constants: 2006, Web Version 5.1
 ***             http://physics.nist.gov/constants

 Speed of light in vacuum [m/s]                             2.99792458000000E+08
 Magnetic constant or permeability of vacuum [N/A**2]       1.25663706143592E-06
 Electric constant or permittivity of vacuum [F/m]          8.85418781762039E-12
 Planck constant (h) [J*s]                                  6.62606896000000E-34
 Planck constant (h-bar) [J*s]                              1.05457162825177E-34
 Elementary charge [C]                                      1.60217648700000E-19
 Electron mass [kg]                                         9.10938215000000E-31
 Electron g factor [ ]                                     -2.00231930436220E+00
 Proton mass [kg]                                           1.67262163700000E-27
 Fine-structure constant                                    7.29735253760000E-03
 Rydberg constant [1/m]                                     1.09737315685270E+07
 Avogadro constant [1/mol]                                  6.02214179000000E+23
 Boltzmann constant [J/K]                                   1.38065040000000E-23
 Atomic mass unit [kg]                                      1.66053878200000E-27
 Bohr radius [m]                                            5.29177208590000E-11

 *** Conversion factors ***

 [u] -> [a.u.]                                              1.82288848426455E+03
 [Angstrom] -> [Bohr] = [a.u.]                              1.88972613288564E+00
 [a.u.] = [Bohr] -> [Angstrom]                              5.29177208590000E-01
 [a.u.] -> [s]                                              2.41888432650478E-17
 [a.u.] -> [fs]                                             2.41888432650478E-02
 [a.u.] -> [J]                                              4.35974393937059E-18
 [a.u.] -> [N]                                              8.23872205491840E-08
 [a.u.] -> [K]                                              3.15774647902944E+05
 [a.u.] -> [kJ/mol]                                         2.62549961709828E+03
 [a.u.] -> [kcal/mol]                                       6.27509468713739E+02
 [a.u.] -> [Pa]                                             2.94210107994716E+13
 [a.u.] -> [bar]                                            2.94210107994716E+08
 [a.u.] -> [atm]                                            2.90362800883016E+08
 [a.u.] -> [eV]                                             2.72113838565563E+01
 [a.u.] -> [Hz]                                             6.57968392072181E+15
 [a.u.] -> [1/cm] (wave numbers)                            2.19474631370540E+05
 [a.u./Bohr**2] -> [1/cm]                                   5.14048714338585E+03
 

 CELL_TOP| Volume [angstrom^3]:                                        26196.625
 CELL_TOP| Vector a [angstrom    21.385     0.000     0.000    |a| =      21.385
 CELL_TOP| Vector b [angstrom     0.000    35.000     0.000    |b| =      35.000
 CELL_TOP| Vector c [angstrom     0.000     0.000    35.000    |c| =      35.000
 CELL_TOP| Angle (b,c), alpha [degree]:                                   90.000
 CELL_TOP| Angle (a,c), beta  [degree]:                                   90.000
 CELL_TOP| Angle (a,b), gamma [degree]:                                   90.000
 CELL_TOP| Numerically orthorhombic:                                         YES

 CELL| Volume [angstrom^3]:                                            26196.625
 CELL| Vector a [angstrom]:      21.385     0.000     0.000    |a| =      21.385
 CELL| Vector b [angstrom]:       0.000    35.000     0.000    |b| =      35.000
 CELL| Vector c [angstrom]:       0.000     0.000    35.000    |c| =      35.000
 CELL| Angle (b,c), alpha [degree]:                                       90.000
 CELL| Angle (a,c), beta  [degree]:                                       90.000
 CELL| Angle (a,b), gamma [degree]:                                       90.000
 CELL| Numerically orthorhombic:                                             YES

 CELL_REF| Volume [angstrom^3]:                                        26196.625
 CELL_REF| Vector a [angstrom    21.385     0.000     0.000    |a| =      21.385
 CELL_REF| Vector b [angstrom     0.000    35.000     0.000    |b| =      35.000
 CELL_REF| Vector c [angstrom     0.000     0.000    35.000    |c| =      35.000
 CELL_REF| Angle (b,c), alpha [degree]:                                   90.000
 CELL_REF| Angle (a,c), beta  [degree]:                                   90.000
 CELL_REF| Angle (a,b), gamma [degree]:                                   90.000
 CELL_REF| Numerically orthorhombic:                                         YES

 *******************************************************************************
 *******************************************************************************
 **                                                                           **
 **     #####                         ##              ##                      **
 **    ##   ##            ##          ##              ##                      **
 **   ##     ##                       ##            ######                    **
 **   ##     ##  ##   ##  ##   #####  ##  ##   ####   ##    #####    #####    **
 **   ##     ##  ##   ##  ##  ##      ## ##   ##      ##   ##   ##  ##   ##   **
 **   ##  ## ##  ##   ##  ##  ##      ####     ###    ##   ######   ######    **
 **    ##  ###   ##   ##  ##  ##      ## ##      ##   ##   ##       ##        **
 **     #######   #####   ##   #####  ##  ##  ####    ##    #####   ##        **
 **           ##                                                    ##        **
 **                                                                           **
 **                                                ... make the atoms dance   **
 **                                                                           **
 **            Copyright (C) by CP2K developers group (2000 - 2018)           **
 **                                                                           **
 *******************************************************************************

 DFT| Spin unrestricted (spin-polarized) Kohn-Sham calculation               UKS
 DFT| Multiplicity                                                            35
 DFT| Number of spin states                                                    2
 DFT| Charge                                                                   6
 DFT| Self-interaction correction (SIC)                                       NO
 DFT| Cutoffs: density                                              1.000000E-10
 DFT|          gradient                                             1.000000E-10
 DFT|          tau                                                  1.000000E-10
 DFT|          cutoff_smoothing_range                               0.000000E+00
 DFT| XC density smoothing                                                  NONE
 DFT| XC derivatives                                                          PW

 DFT+U| Method                                                          MULLIKEN
 DFT+U| Check atomic kind information for details
 FUNCTIONAL| ROUTINE=NEW
 FUNCTIONAL| BECKE88:
 FUNCTIONAL| A. Becke, Phys. Rev. A 38, 3098 (1988) {LSD version}               
 FUNCTIONAL| LYP:
 FUNCTIONAL| C. Lee, W. Yang, R.G. Parr, Phys. Rev. B, 37, 785 (1988) {LSD versi
 FUNCTIONAL| on}                                                                

 QS| Method:                                                                 GPW
 QS| Density plane wave grid type                        NON-SPHERICAL FULLSPACE
 QS| Number of grid levels:                                                    5
 QS| Density cutoff [a.u.]:                                                250.0
 QS| Multi grid cutoff [a.u.]: 1) grid level                               250.0
 QS|                           2) grid level                                83.3
 QS|                           3) grid level                                27.8
 QS|                           4) grid level                                 9.3
 QS|                           5) grid level                                 3.1
 QS| Grid level progression factor:                                          3.0
 QS| Relative density cutoff [a.u.]:                                        30.0
 QS| Consistent realspace mapping and integration 
 QS| Interaction thresholds: eps_pgf_orb:                                1.0E-10
 QS|                         eps_filter_matrix:                          0.0E+00
 QS|                         eps_core_charge:                            1.0E-14
 QS|                         eps_rho_gspace:                             1.0E-12
 QS|                         eps_rho_rspace:                             1.0E-12
 QS|                         eps_gvg_rspace:                             1.0E-06
 QS|                         eps_ppl:                                    1.0E-02
 QS|                         eps_ppnl:                                   1.0E-08


 ATOMIC KIND INFORMATION

  1. Atomic kind: Fe                                    Number of atoms:       7

     Orbital Basis Set                                                   mod-DZV

       Number of orbital shell sets:                                           1
       Number of orbital shells:                                               7
       Number of primitive Cartesian functions:                                6
       Number of Cartesian basis functions:                                   21
       Number of spherical basis functions:                                   19
       Norm type:                                                              2

       Normalised Cartesian orbitals:

                        Set   Shell   Orbital            Exponent    Coefficient

                          1       1    2s                8.424366      -0.545589
                                                         4.825220      -0.832336
                                                         2.198939       0.958990
                                                         0.891661       0.416271
                                                         0.316231       0.012631
                                                         0.103474      -0.013505

                          1       2    3s                8.424366      -0.106056
                                                         4.825220      -0.104587
                                                         2.198939       0.052318
                                                         0.891661      -0.169042
                                                         0.316231       0.061854
                                                         0.103474       0.122891

                          1       3    4s                8.424366      -0.333477
                                                         4.825220      -0.289267
                                                         2.198939      -0.125861
                                                         0.891661      -1.004000
                                                         0.316231       0.780774
                                                         0.103474      -0.187846

                          1       4    3px               8.424366      -1.658234
                                                         4.825220       1.618912
                                                         2.198939       1.969078
                                                         0.891661       0.523780
                                                         0.316231       0.024574
                                                         0.103474      -0.000798
                          1       4    3py               8.424366      -1.658234
                                                         4.825220       1.618912
                                                         2.198939       1.969078
                                                         0.891661       0.523780
                                                         0.316231       0.024574
                                                         0.103474      -0.000798
                          1       4    3pz               8.424366      -1.658234
                                                         4.825220       1.618912
                                                         2.198939       1.969078
                                                         0.891661       0.523780
                                                         0.316231       0.024574
                                                         0.103474      -0.000798

                          1       5    4px               8.424366      -0.105249
                                                         4.825220      -0.126123
                                                         2.198939      -0.349657
                                                         0.891661      -0.133470
                                                         0.316231       0.170554
                                                         0.103474       0.054381
                          1       5    4py               8.424366      -0.105249
                                                         4.825220      -0.126123
                                                         2.198939      -0.349657
                                                         0.891661      -0.133470
                                                         0.316231       0.170554
                                                         0.103474       0.054381
                          1       5    4pz               8.424366      -0.105249
                                                         4.825220      -0.126123
                                                         2.198939      -0.349657
                                                         0.891661      -0.133470
                                                         0.316231       0.170554
                                                         0.103474       0.054381

                          1       6    4dx2              8.424366       7.918298
                                                         4.825220       5.112663
                                                         2.198939       2.118663
                                                         0.891661       0.465004
                                                         0.316231       0.065856
                                                         0.103474       0.002769
                          1       6    4dxy              8.424366      13.714895
                                                         4.825220       8.855393
                                                         2.198939       3.669632
                                                         0.891661       0.805411
                                                         0.316231       0.114066
                                                         0.103474       0.004796
                          1       6    4dxz              8.424366      13.714895
                                                         4.825220       8.855393
                                                         2.198939       3.669632
                                                         0.891661       0.805411
                                                         0.316231       0.114066
                                                         0.103474       0.004796
                          1       6    4dy2              8.424366       7.918298
                                                         4.825220       5.112663
                                                         2.198939       2.118663
                                                         0.891661       0.465004
                                                         0.316231       0.065856
                                                         0.103474       0.002769
                          1       6    4dyz              8.424366      13.714895
                                                         4.825220       8.855393
                                                         2.198939       3.669632
                                                         0.891661       0.805411
                                                         0.316231       0.114066
                                                         0.103474       0.004796
                          1       6    4dz2              8.424366       7.918298
                                                         4.825220       5.112663
                                                         2.198939       2.118663
                                                         0.891661       0.465004
                                                         0.316231       0.065856
                                                         0.103474       0.002769

                          1       7    5dx2              8.424366      -4.223614
                                                         4.825220      -1.970584
                                                         2.198939      -1.543490
                                                         0.891661      -0.041381
                                                         0.316231       0.082821
                                                         0.103474       0.021964
                          1       7    5dxy              8.424366      -7.315513
                                                         4.825220      -3.413151
                                                         2.198939      -2.673404
                                                         0.891661      -0.071673
                                                         0.316231       0.143450
                                                         0.103474       0.038042
                          1       7    5dxz              8.424366      -7.315513
                                                         4.825220      -3.413151
                                                         2.198939      -2.673404
                                                         0.891661      -0.071673
                                                         0.316231       0.143450
                                                         0.103474       0.038042
                          1       7    5dy2              8.424366      -4.223614
                                                         4.825220      -1.970584
                                                         2.198939      -1.543490
                                                         0.891661      -0.041381
                                                         0.316231       0.082821
                                                         0.103474       0.021964
                          1       7    5dyz              8.424366      -7.315513
                                                         4.825220      -3.413151
                                                         2.198939      -2.673404
                                                         0.891661      -0.071673
                                                         0.316231       0.143450
                                                         0.103474       0.038042
                          1       7    5dz2              8.424366      -4.223614
                                                         4.825220      -1.970584
                                                         2.198939      -1.543490
                                                         0.891661      -0.041381
                                                         0.316231       0.082821
                                                         0.103474       0.021964

     GTH Potential information for                                  GTH-BLYP-q16

       Description:                       Goedecker-Teter-Hutter pseudopotential
                                           Goedecker et al., PRB 54, 1703 (1996)
                                          Hartwigsen et al., PRB 58, 3641 (1998)
                                                      Krack, TCA 114, 145 (2005)

       Gaussian exponent of the core charge distribution:               3.858025
       Electronic configuration (s p d ...):                           4   6   6

       Parameters of the local part of the GTH pseudopotential:

                          rloc        C1          C2          C3          C4
                        0.360000    7.011025   -0.222747

       Parameters of the non-local part of the GTH pseudopotential:

                   l      r(l)      h(i,j,l)

                   0    0.276205    0.611496    7.992357
                                    7.992357  -10.318089
                   1    0.247130   -8.710556    8.684169
                                    8.684169  -10.275248
                   2    0.223534  -12.411504

     A DFT+U correction is applied to atoms of this atomic kind:
       Angular quantum momentum number L:                                      2
       U(eff) = (U - J) value in [eV]:                                     9.000

  2. Atomic kind: O                                     Number of atoms:      28

     Orbital Basis Set                                                   mod-DZV

       Number of orbital shell sets:                                           1
       Number of orbital shells:                                               4
       Number of primitive Cartesian functions:                                5
       Number of Cartesian basis functions:                                    8
       Number of spherical basis functions:                                    8
       Norm type:                                                              2

       Normalised Cartesian orbitals:

                        Set   Shell   Orbital            Exponent    Coefficient

                          1       1    2s               10.389228       0.396646
                                                         3.849621       0.208811
                                                         1.388401      -0.301641
                                                         0.496955      -0.274061
                                                         0.162492      -0.033677

                          1       2    3s               10.389228       0.303673
                                                         3.849621       0.240943
                                                         1.388401      -0.313066
                                                         0.496955      -0.043055
                                                         0.162492       0.213991

                          1       3    3px              10.389228      -1.530415
                                                         3.849621      -1.371928
                                                         1.388401      -0.761951
                                                         0.496955      -0.253695
                                                         0.162492      -0.035541
                          1       3    3py              10.389228      -1.530415
                                                         3.849621      -1.371928
                                                         1.388401      -0.761951
                                                         0.496955      -0.253695
                                                         0.162492      -0.035541
                          1       3    3pz              10.389228      -1.530415
                                                         3.849621      -1.371928
                                                         1.388401      -0.761951
                                                         0.496955      -0.253695
                                                         0.162492      -0.035541

                          1       4    4px              10.389228      -0.565392
                                                         3.849621      -0.038231
                                                         1.388401      -0.382373
                                                         0.496955       0.179070
                                                         0.162492       0.122714
                          1       4    4py              10.389228      -0.565392
                                                         3.849621      -0.038231
                                                         1.388401      -0.382373
                                                         0.496955       0.179070
                                                         0.162492       0.122714
                          1       4    4pz              10.389228      -0.565392
                                                         3.849621      -0.038231
                                                         1.388401      -0.382373
                                                         0.496955       0.179070
                                                         0.162492       0.122714

     GTH Potential information for                                   GTH-BLYP-q6

       Description:                       Goedecker-Teter-Hutter pseudopotential
                                           Goedecker et al., PRB 54, 1703 (1996)
                                          Hartwigsen et al., PRB 58, 3641 (1998)
                                                      Krack, TCA 114, 145 (2005)

       Gaussian exponent of the core charge distribution:               8.438331
       Electronic configuration (s p d ...):                               2   4

       Parameters of the local part of the GTH pseudopotential:

                          rloc        C1          C2          C3          C4
                        0.243420  -16.991892    2.566142

       Parameters of the non-local part of the GTH pseudopotential:

                   l      r(l)      h(i,j,l)

                   0    0.220831   18.388851
                   1    0.217201

  3. Atomic kind: H                                     Number of atoms:      42

     Orbital Basis Set                                                   mod-DZV

       Number of orbital shell sets:                                           1
       Number of orbital shells:                                               2
       Number of primitive Cartesian functions:                                5
       Number of Cartesian basis functions:                                    2
       Number of spherical basis functions:                                    2
       Norm type:                                                              2

       Normalised Cartesian orbitals:

                        Set   Shell   Orbital            Exponent    Coefficient

                          1       1    2s               10.068468      -0.133023
                                                         2.680223      -0.177618
                                                         0.791502      -0.258419
                                                         0.239116      -0.107525
                                                         0.082193      -0.014019

                          1       2    3s               10.068468       0.344673
                                                         2.680223       1.819821
                                                         0.791502      -0.999069
                                                         0.239116       0.017430
                                                         0.082193       0.082660

     GTH Potential information for                                   GTH-BLYP-q1

       Description:                       Goedecker-Teter-Hutter pseudopotential
                                           Goedecker et al., PRB 54, 1703 (1996)
                                          Hartwigsen et al., PRB 58, 3641 (1998)
                                                      Krack, TCA 114, 145 (2005)

       Gaussian exponent of the core charge distribution:              12.500000
       Electronic configuration (s p d ...):                                   1

       Parameters of the local part of the GTH pseudopotential:

                          rloc        C1          C2          C3          C4
                        0.200000   -4.195961    0.730498


 MOLECULE KIND INFORMATION


 All atoms are their own molecule, skipping detailed information


 TOTAL NUMBERS AND MAXIMUM NUMBERS

  Total number of            - Atomic kinds:                                   3
                             - Atoms:                                         77
                             - Shell sets:                                    77
                             - Shells:                                       245
                             - Primitive Cartesian functions:                392
                             - Cartesian basis functions:                    455
                             - Spherical basis functions:                    441

  Maximum angular momentum of- Orbital basis functions:                        2
                             - Local part of the GTH pseudopotential:          2
                             - Non-local part of the GTH pseudopotential:      3


 MODULE QUICKSTEP:  ATOMIC COORDINATES IN angstrom

  Atom  Kind  Element       X           Y           Z          Z(eff)       Mass

       1     1 Fe  26   18.341376    0.000010    0.000047     16.00      55.8450
       2     1 Fe  26   15.295280    0.000001    0.000140     16.00      55.8450
       3     1 Fe  26   12.219859   -0.000159    0.000151     16.00      55.8450
       4     1 Fe  26    9.134181    0.000026   -0.000022     16.00      55.8450
       5     1 Fe  26    6.126027    0.023206   -0.005276     16.00      55.8450
       6     1 Fe  26    3.117612    0.000026   -0.000022     16.00      55.8450
       7     1 Fe  26    0.027993   -0.000206    0.000009     16.00      55.8450
       8     2 O    8   18.313365    0.025626    2.076278      6.00      15.9994
       9     2 O    8   18.313341   -0.025584   -2.076273      6.00      15.9994
      10     2 O    8   19.860084   -1.210382    0.017861      6.00      15.9994
      11     2 O    8   19.860106    1.210150   -0.017911      6.00      15.9994
      12     2 O    8   15.269496    0.026035    2.076108      6.00      15.9994
      13     2 O    8   15.269464   -0.025938   -2.076071      6.00      15.9994
      14     2 O    8   16.816684   -1.213884    0.018969      6.00      15.9994
      15     2 O    8   16.816672    1.213859   -0.018926      6.00      15.9994
      16     2 O    8   12.226616    0.024323    2.081036      6.00      15.9994
      17     2 O    8   12.227174   -0.025790   -2.080948      6.00      15.9994
      18     2 O    8   13.772239   -1.210117    0.018187      6.00      15.9994
      19     2 O    8   13.772224    1.209876   -0.017961      6.00      15.9994
      20     2 O    8    9.238162   -0.026716    2.139410      6.00      15.9994
      21     2 O    8    9.239126    0.026310   -2.139740      6.00      15.9994
      22     2 O    8   10.728619   -1.208973   -0.000553      6.00      15.9994
      23     2 O    8   10.729416    1.208806    0.001485      6.00      15.9994
      24     2 O    8    6.127094    0.027700    2.161619      6.00      15.9994
      25     2 O    8    6.126905    0.033581   -2.174685      6.00      15.9994
      26     2 O    8    7.760463   -1.259504   -0.022119      6.00      15.9994
      27     2 O    8    7.768229    1.272230    0.016155      6.00      15.9994
      28     2 O    8    3.010554   -0.027346    2.136779      6.00      15.9994
      29     2 O    8    3.009749    0.026821   -2.137234      6.00      15.9994
      30     2 O    8    4.490953   -1.259571   -0.022109      6.00      15.9994
      31     2 O    8    4.483064    1.272291    0.016478      6.00      15.9994
      32     2 O    8   -0.027687    0.023509    2.082180      6.00      15.9994
      33     2 O    8   -0.027285   -0.024860   -2.082288      6.00      15.9994
      34     2 O    8    1.519635   -1.207262   -0.002853      6.00      15.9994
      35     2 O    8    1.518806    1.207044    0.003640      6.00      15.9994
      36     3 H    1   18.384194   -0.838402   -2.639337      1.00       1.0079
      37     3 H    1   18.375519    0.785818   -2.642763      1.00       1.0079
      38     3 H    1   18.375301   -0.785662    2.642934      1.00       1.0079
      39     3 H    1   18.384637    0.838583    2.639147      1.00       1.0079
      40     3 H    1   19.870225   -2.198415    0.016377      1.00       1.0079
      41     3 H    1   19.870548    2.198204   -0.016872      1.00       1.0079
      42     3 H    1   15.181747   -0.839029   -2.636324      1.00       1.0079
      43     3 H    1   15.187768    0.785032   -2.640618      1.00       1.0079
      44     3 H    1   15.188421   -0.784741    2.641008      1.00       1.0079
      45     3 H    1   15.182275    0.839345    2.636149      1.00       1.0079
      46     3 H    1   16.815340   -2.201882    0.017407      1.00       1.0079
      47     3 H    1   16.815336    2.201880   -0.017489      1.00       1.0079
      48     3 H    1   12.015304   -0.838452   -2.608516      1.00       1.0079
      49     3 H    1   12.033917    0.781590   -2.623854      1.00       1.0079
      50     3 H    1   12.038605   -0.784800    2.623209      1.00       1.0079
      51     3 H    1   12.011314    0.835253    2.609796      1.00       1.0079
      52     3 H    1   13.759789   -2.198155    0.017318      1.00       1.0079
      53     3 H    1   13.759432    2.197910   -0.016945      1.00       1.0079
      54     3 H    1    9.012931   -0.780197   -2.671332      1.00       1.0079
      55     3 H    1    9.021705    0.843426   -2.658445      1.00       1.0079
      56     3 H    1    9.030670   -0.845116    2.660344      1.00       1.0079
      57     3 H    1    9.006798    0.778484    2.670626      1.00       1.0079
      58     3 H    1   10.693003   -2.195736    0.000381      1.00       1.0079
      59     3 H    1   10.694948    2.195589   -0.000573      1.00       1.0079
      60     3 H    1    6.113572   -0.781082   -2.739574      1.00       1.0079
      61     3 H    1    6.113851    0.843787   -2.746342      1.00       1.0079
      62     3 H    1    6.113707   -0.778403    2.738240      1.00       1.0079
      63     3 H    1    6.113681    0.846789    2.720241      1.00       1.0079
      64     3 H    1    7.730288   -2.244181   -0.023630      1.00       1.0079
      65     3 H    1    7.754992    2.257556    0.018606      1.00       1.0079
      66     3 H    1    3.208901   -0.780539   -2.677744      1.00       1.0079
      67     3 H    1    3.200051    0.844671   -2.664836      1.00       1.0079
      68     3 H    1    3.191749   -0.846322    2.666036      1.00       1.0079
      69     3 H    1    3.213975    0.778870    2.677277      1.00       1.0079
      70     3 H    1    4.520948   -2.244272   -0.023863      1.00       1.0079
      71     3 H    1    4.496138    2.257648    0.019236      1.00       1.0079
      72     3 H    1    0.165410   -0.837406   -2.617657      1.00       1.0079
      73     3 H    1    0.142814    0.783564   -2.631686      1.00       1.0079
      74     3 H    1    0.138294   -0.786257    2.630873      1.00       1.0079
      75     3 H    1    0.167819    0.834733    2.618461      1.00       1.0079
      76     3 H    1    1.554027   -2.194055   -0.002262      1.00       1.0079
      77     3 H    1    1.552083    2.193861    0.001872      1.00       1.0079




 SCF PARAMETERS         Density guess:                                   RESTART
                        --------------------------------------------------------
                        max_scf:                                            1000
                        max_scf_history:                                       0
                        max_diis:                                              4
                        --------------------------------------------------------
                        eps_scf:                                        1.00E-06
                        eps_scf_history:                                0.00E+00
                        eps_diis:                                       1.00E-01
                        eps_eigval:                                     1.00E-05
                        --------------------------------------------------------
                        level_shift [a.u.]:                                 0.00
                        --------------------------------------------------------
                        Outer loop SCF in use 
                        No variables optimised in outer loop
                        eps_scf                                         1.00E-06
                        max_scf                                              500
                        No outer loop optimization
                        step_size                                       5.00E-01

 PW_GRID| Information for grid number                                          1
 PW_GRID| Grid distributed over                                   144 processors
 PW_GRID| Real space group dimensions                                   144    1
 PW_GRID| the grid is blocked:                                                NO
 PW_GRID| Cutoff [a.u.]                                                    250.0
 PW_GRID| spherical cutoff:                                                   NO
 PW_GRID|   Bounds   1           -144     143                Points:         288
 PW_GRID|   Bounds   2           -240     239                Points:         480
 PW_GRID|   Bounds   3           -240     239                Points:         480
 PW_GRID| Volume element (a.u.^3)  0.2664E-02     Volume (a.u.^3)    176783.5904
 PW_GRID| Grid span                                                    FULLSPACE
 PW_GRID|   Distribution                         Average         Max         Min
 PW_GRID|   G-Vectors                           460800.0      460800      460800
 PW_GRID|   G-Rays                                1600.0        1600        1600
 PW_GRID|   Real Space Points                   460800.0      460800      460800

 PW_GRID| Information for grid number                                          2
 PW_GRID| Grid distributed over                                   144 processors
 PW_GRID| Real space group dimensions                                   144    1
 PW_GRID| the grid is blocked:                                                NO
 PW_GRID| Cutoff [a.u.]                                                     83.3
 PW_GRID| spherical cutoff:                                                   NO
 PW_GRID|   Bounds   1            -84      83                Points:         168
 PW_GRID|   Bounds   2           -137     137                Points:         275
 PW_GRID|   Bounds   3           -137     137                Points:         275
 PW_GRID| Volume element (a.u.^3)  0.1391E-01     Volume (a.u.^3)    176783.5904
 PW_GRID| Grid span                                                    FULLSPACE
 PW_GRID|   Distribution                         Average         Max         Min
 PW_GRID|   G-Vectors                            88229.2       88368       88032
 PW_GRID|   G-Rays                                 525.2         526         524
 PW_GRID|   Real Space Points                    88229.2      151250       75625

 PW_GRID| Information for grid number                                          3
 PW_GRID| Grid distributed over                                   144 processors
 PW_GRID| Real space group dimensions                                    12   12
 PW_GRID| the grid is blocked:                                                NO
 PW_GRID| Cutoff [a.u.]                                                     27.8
 PW_GRID| spherical cutoff:                                                   NO
 PW_GRID|   Bounds   1            -48      47                Points:          96
 PW_GRID|   Bounds   2            -80      79                Points:         160
 PW_GRID|   Bounds   3            -80      79                Points:         160
 PW_GRID| Volume element (a.u.^3)  0.7193E-01     Volume (a.u.^3)    176783.5904
 PW_GRID| Grid span                                                    FULLSPACE
 PW_GRID|   Distribution                         Average         Max         Min
 PW_GRID|   G-Vectors                            17066.7       17280       16896
 PW_GRID|   G-Rays                                 177.8         180         176
 PW_GRID|   Real Space Points                    17066.7       17920       16640

 PW_GRID| Information for grid number                                          4
 PW_GRID| Grid distributed over                                   144 processors
 PW_GRID| Real space group dimensions                                    12   12
 PW_GRID| the grid is blocked:                                                NO
 PW_GRID| Cutoff [a.u.]                                                      9.3
 PW_GRID| spherical cutoff:                                                   NO
 PW_GRID|   Bounds   1            -27      27                Points:          55
 PW_GRID|   Bounds   2            -48      47                Points:          96
 PW_GRID|   Bounds   3            -48      47                Points:          96
 PW_GRID| Volume element (a.u.^3)  0.3488         Volume (a.u.^3)    176783.5904
 PW_GRID| Grid span                                                    FULLSPACE
 PW_GRID|   Distribution                         Average         Max         Min
 PW_GRID|   G-Vectors                             3520.0        3575        3465
 PW_GRID|   G-Rays                                  64.0          65          63
 PW_GRID|   Real Space Points                     3520.0        3840        3072

 PW_GRID| Information for grid number                                          5
 PW_GRID| Grid distributed over                                   144 processors
 PW_GRID| Real space group dimensions                                    12   12
 PW_GRID| the grid is blocked:                                                NO
 PW_GRID| Cutoff [a.u.]                                                      3.1
 PW_GRID| spherical cutoff:                                                   NO
 PW_GRID|   Bounds   1            -16      15                Points:          32
 PW_GRID|   Bounds   2            -27      26                Points:          54
 PW_GRID|   Bounds   3            -27      26                Points:          54
 PW_GRID| Volume element (a.u.^3)   1.895         Volume (a.u.^3)    176783.5904
 PW_GRID| Grid span                                                    FULLSPACE
 PW_GRID|   Distribution                         Average         Max         Min
 PW_GRID|   G-Vectors                              648.0         704         608
 PW_GRID|   G-Rays                                  20.2          22          19
 PW_GRID|   Real Space Points                      648.0         810         432

 POISSON| Solver                                                        PERIODIC
 POISSON| Periodicity                                                        XYZ

 RS_GRID| Information for grid number                                          1
 RS_GRID|   Bounds   1           -144     143                Points:         288
 RS_GRID|   Bounds   2           -240     239                Points:         480
 RS_GRID|   Bounds   3           -240     239                Points:         480
 RS_GRID| Real space distribution over                                  4 groups
 RS_GRID| Real space distribution along direction                              1
 RS_GRID| Border size                                                         26
 RS_GRID| Real space distribution over                                  6 groups
 RS_GRID| Real space distribution along direction                              2
 RS_GRID| Border size                                                         26
 RS_GRID| Real space distribution over                                  6 groups
 RS_GRID| Real space distribution along direction                              3
 RS_GRID| Border size                                                         26
 RS_GRID|   Distribution                         Average         Max         Min
 RS_GRID|   Planes                                 124.0         124         124
 RS_GRID|   Distribution                         Average         Max         Min
 RS_GRID|   Planes                                 132.0         132         132
 RS_GRID|   Distribution                         Average         Max         Min
 RS_GRID|   Planes                                 132.0         132         132

 RS_GRID| Information for grid number                                          2
 RS_GRID|   Bounds   1            -84      83                Points:         168
 RS_GRID|   Bounds   2           -137     137                Points:         275
 RS_GRID|   Bounds   3           -137     137                Points:         275
 RS_GRID| Real space distribution over                                  4 groups
 RS_GRID| Real space distribution along direction                              1
 RS_GRID| Border size                                                         27
 RS_GRID| Real space distribution over                                  6 groups
 RS_GRID| Real space distribution along direction                              2
 RS_GRID| Border size                                                         27
 RS_GRID| Real space distribution over                                  6 groups
 RS_GRID| Real space distribution along direction                              3
 RS_GRID| Border size                                                         27
 RS_GRID|   Distribution                         Average         Max         Min
 RS_GRID|   Planes                                  96.0          96          96
 RS_GRID|   Distribution                         Average         Max         Min
 RS_GRID|   Planes                                  99.8         100          99
 RS_GRID|   Distribution                         Average         Max         Min
 RS_GRID|   Planes                                  99.8         100          99

 RS_GRID| Information for grid number                                          3
 RS_GRID|   Bounds   1            -48      47                Points:          96
 RS_GRID|   Bounds   2            -80      79                Points:         160
 RS_GRID|   Bounds   3            -80      79                Points:         160
 RS_GRID| Real space fully replicated
 RS_GRID| Group size                                                           1

 RS_GRID| Information for grid number                                          4
 RS_GRID|   Bounds   1            -27      27                Points:          55
 RS_GRID|   Bounds   2            -48      47                Points:          96
 RS_GRID|   Bounds   3            -48      47                Points:          96
 RS_GRID| Real space fully replicated
 RS_GRID| Group size                                                           1

 RS_GRID| Information for grid number                                          5
 RS_GRID|   Bounds   1            -16      15                Points:          32
 RS_GRID|   Bounds   2            -27      26                Points:          54
 RS_GRID|   Bounds   3            -27      26                Points:          54
 RS_GRID| Real space fully replicated
 RS_GRID| Group size                                                           1

 *******************************************************************************
 ***                     STARTING GEOMETRY OPTIMIZATION                      ***
 ***                           CONJUGATE GRADIENTS                           ***
 *******************************************************************************

 Spin 1

 Number of electrons:                                                        175
 Number of occupied orbitals:                                                175
 Number of molecular orbitals:                                               175

 Spin 2

 Number of electrons:                                                        141
 Number of occupied orbitals:                                                141
 Number of molecular orbitals:                                               141

 Number of orbital functions:                                                441
 Number of independent orbital functions:                                    441

 Extrapolation method: initial_guess


 SCF WAVEFUNCTION OPTIMIZATION

  ----------------------------------- OT ---------------------------------------
  Minimizer      : CG                  : conjugate gradient
  Preconditioner : FULL_KINETIC        : inversion of T + eS
  Precond_solver : DEFAULT
  Line search    : 2PNT                : 2 energies, one gradient
  stepsize       :    0.15000000                  energy_gap     :    0.20000000
  eps_taylor     :   0.10000E-15                  max_taylor     :             4
  ----------------------------------- OT ---------------------------------------

  Step     Update method      Time    Convergence         Total energy    Change
  ------------------------------------------------------------------------------

 *** WARNING in dft_plus_u.F:1457 :: DFT+U energy contibution is negative ***
 *** possibly due to unphysical Mulliken charges. Check your input, if    ***
 *** this warning persists or try a different method!                     ***

     1 OT CG       0.15E+00    6.2     0.00000248     -1335.6204114684 -1.34E+03

 *** WARNING in dft_plus_u.F:1457 :: DFT+U energy contibution is negative ***
 *** possibly due to unphysical Mulliken charges. Check your input, if    ***
 *** this warning persists or try a different method!                     ***

     2 OT LS       0.53E+00    1.1                    -1335.6204115787

 *** WARNING in dft_plus_u.F:1457 :: DFT+U energy contibution is negative ***
 *** possibly due to unphysical Mulliken charges. Check your input, if    ***
 *** this warning persists or try a different method!                     ***

     3 OT CG       0.53E+00    2.4     0.00000135     -1335.6204117000 -2.32E-07

 *** WARNING in dft_plus_u.F:1457 :: DFT+U energy contibution is negative ***
 *** possibly due to unphysical Mulliken charges. Check your input, if    ***
 *** this warning persists or try a different method!                     ***

     4 OT LS       0.33E+00    1.4                    -1335.6204117253

 *** WARNING in dft_plus_u.F:1457 :: DFT+U energy contibution is negative ***
 *** possibly due to unphysical Mulliken charges. Check your input, if    ***
 *** this warning persists or try a different method!                     ***

     5 OT CG       0.33E+00    2.3     0.00000100     -1335.6204117422 -4.22E-08

  *** SCF run converged in     5 steps ***


  Electronic density on regular grids:       -316.0000000003       -0.0000000003
  Core density on regular grids:              321.9999999999       -0.0000000001
  Total charge density on r-space grids:        5.9999999996
  Total charge density g-space grids:           5.9999999996

  Overlap energy of the core charge distribution:               0.00000038693973
  Self energy of the core charge distribution:              -2631.59580429473499
  Core Hamiltonian energy:                                    744.18614026986370
  Hartree energy:                                             755.99521802656636
  Exchange-correlation energy:                               -203.86774050400845

  DFT+U energy:                                                -0.33822562682404

  Total energy:                                             -1335.62041174219780

  outer SCF iter =    1 RMS gradient =   0.10E-05 energy =      -1335.6204117422
  outer SCF loop converged in   1 iterations or    5 steps


  Integrated absolute spin density  :                              34.0448816523
  Ideal and single determinant S**2 :                  306.000000     306.038221

 !-----------------------------------------------------------------------------!
                     Mulliken Population Analysis

 #  Atom  Element  Kind  Atomic population (alpha,beta) Net charge  Spin moment
       1     Fe       1         9.671531     5.062581     1.265888     4.608951
       2     Fe       1         9.671490     5.062371     1.266139     4.609119
       3     Fe       1         9.674284     5.071258     1.254459     4.603026
       4     Fe       1         9.667494     5.095820     1.236686     4.571673
       5     Fe       1         9.448061     5.454545     1.097394     3.993516
       6     Fe       1         9.666737     5.094236     1.239027     4.572502
       7     Fe       1         9.673798     5.070890     1.255313     4.602908
       8     O        2         3.247370     3.221192    -0.468562     0.026178
       9     O        2         3.247350     3.221167    -0.468516     0.026183
      10     O        2         3.402958     3.255799    -0.658757     0.147159
      11     O        2         3.402950     3.255680    -0.658630     0.147270
      12     O        2         3.247419     3.221212    -0.468631     0.026206
      13     O        2         3.247421     3.221165    -0.468585     0.026256
      14     O        2         3.403129     3.252893    -0.656022     0.150236
      15     O        2         3.403130     3.252873    -0.656003     0.150257
      16     O        2         3.247838     3.221624    -0.469461     0.026214
      17     O        2         3.247836     3.221637    -0.469474     0.026199
      18     O        2         3.402953     3.256281    -0.659234     0.146672
      19     O        2         3.402935     3.256144    -0.659080     0.146791
      20     O        2         3.252641     3.232012    -0.484653     0.020629
      21     O        2         3.252565     3.231854    -0.484419     0.020711
      22     O        2         3.403056     3.260586    -0.663642     0.142470
      23     O        2         3.402975     3.260469    -0.663444     0.142506
      24     O        2         3.257790     3.262915    -0.520706    -0.005125
      25     O        2         3.258063     3.263252    -0.521314    -0.005189
      26     O        2         3.410908     3.274387    -0.685296     0.136521
      27     O        2         3.410297     3.275330    -0.685627     0.134967
      28     O        2         3.252561     3.232426    -0.484987     0.020135
      29     O        2         3.252481     3.232275    -0.484756     0.020206
      30     O        2         3.411049     3.273925    -0.684975     0.137124
      31     O        2         3.410447     3.274849    -0.685297     0.135598
      32     O        2         3.248025     3.222195    -0.470219     0.025830
      33     O        2         3.248024     3.222180    -0.470205     0.025844
      34     O        2         3.403315     3.260359    -0.663673     0.142956
      35     O        2         3.403234     3.260248    -0.663482     0.142987
      36     H        3         0.335374     0.332952     0.331674     0.002423
      37     H        3         0.335361     0.333060     0.331580     0.002301
      38     H        3         0.335367     0.333067     0.331566     0.002300
      39     H        3         0.335348     0.332930     0.331723     0.002418
      40     H        3         0.347278     0.339869     0.312853     0.007410
      41     H        3         0.347291     0.339876     0.312833     0.007415
      42     H        3         0.335339     0.332920     0.331741     0.002420
      43     H        3         0.335321     0.333020     0.331660     0.002301
      44     H        3         0.335334     0.333032     0.331634     0.002302
      45     H        3         0.335311     0.332895     0.331795     0.002416
      46     H        3         0.346279     0.338589     0.315132     0.007690
      47     H        3         0.346280     0.338584     0.315136     0.007695
      48     H        3         0.336060     0.334026     0.329914     0.002034
      49     H        3         0.336040     0.334037     0.329923     0.002003
      50     H        3         0.336090     0.334088     0.329822     0.002001
      51     H        3         0.336016     0.333975     0.330009     0.002041
      52     H        3         0.347463     0.340073     0.312464     0.007390
      53     H        3         0.347473     0.340080     0.312447     0.007393
      54     H        3         0.339052     0.337508     0.323440     0.001545
      55     H        3         0.338950     0.337343     0.323707     0.001607
      56     H        3         0.338878     0.337250     0.323872     0.001628
      57     H        3         0.339042     0.337496     0.323462     0.001547
      58     H        3         0.348965     0.341596     0.309439     0.007369
      59     H        3         0.349051     0.341694     0.309255     0.007357
      60     H        3         0.342955     0.341119     0.315926     0.001836
      61     H        3         0.342949     0.341045     0.316006     0.001903
      62     H        3         0.343216     0.341307     0.315477     0.001910
      63     H        3         0.342809     0.340977     0.316213     0.001832
      64     H        3         0.353313     0.346971     0.299716     0.006341
      65     H        3         0.353157     0.347181     0.299662     0.005976
      66     H        3         0.339047     0.337401     0.323553     0.001646
      67     H        3         0.338944     0.337237     0.323819     0.001707
      68     H        3         0.338850     0.337126     0.324024     0.001724
      69     H        3         0.339044     0.337395     0.323560     0.001649
      70     H        3         0.353304     0.346963     0.299733     0.006341
      71     H        3         0.353150     0.347171     0.299679     0.005979
      72     H        3         0.336071     0.334021     0.329908     0.002051
      73     H        3         0.336077     0.334059     0.329864     0.002019
      74     H        3         0.336113     0.334096     0.329791     0.002017
      75     H        3         0.336048     0.333994     0.329957     0.002054
      76     H        3         0.348890     0.341625     0.309485     0.007266
      77     H        3         0.348981     0.341726     0.309294     0.007255
 # Total charge and spin      175.000000   141.000000     6.000000    34.000000

 !-----------------------------------------------------------------------------!

 !-----------------------------------------------------------------------------!
                           Hirshfeld Charges

  #Atom  Element  Kind  Ref Charge     Population       Spin moment  Net charge
      1       Fe     1      16.000   10.818   6.369            4.449     -1.186
      2       Fe     1      16.000   10.818   6.368            4.449     -1.186
      3       Fe     1      16.000   10.827   6.385            4.442     -1.211
      4       Fe     1      16.000   10.813   6.399            4.413     -1.212
      5       Fe     1      16.000   10.490   6.628            3.862     -1.118
      6       Fe     1      16.000   10.811   6.397            4.414     -1.208
      7       Fe     1      16.000   10.825   6.383            4.442     -1.208
      8       O      2       6.000    3.338   3.283            0.055     -0.621
      9       O      2       6.000    3.338   3.283            0.055     -0.621
     10       O      2       6.000    3.144   2.943            0.201     -0.086
     11       O      2       6.000    3.144   2.943            0.201     -0.086
     12       O      2       6.000    3.338   3.283            0.055     -0.621
     13       O      2       6.000    3.338   3.283            0.055     -0.621
     14       O      2       6.000    3.139   2.936            0.204     -0.075
     15       O      2       6.000    3.139   2.936            0.204     -0.075
     16       O      2       6.000    3.338   3.284            0.054     -0.622
     17       O      2       6.000    3.338   3.284            0.054     -0.622
     18       O      2       6.000    3.144   2.944            0.200     -0.089
     19       O      2       6.000    3.144   2.944            0.200     -0.089
     20       O      2       6.000    3.359   3.313            0.046     -0.671
     21       O      2       6.000    3.359   3.313            0.046     -0.671
     22       O      2       6.000    3.147   2.950            0.197     -0.096
     23       O      2       6.000    3.147   2.950            0.197     -0.097
     24       O      2       6.000    3.365   3.340            0.025     -0.706
     25       O      2       6.000    3.366   3.341            0.025     -0.707
     26       O      2       6.000    3.147   2.962            0.184     -0.109
     27       O      2       6.000    3.143   2.960            0.183     -0.103
     28       O      2       6.000    3.358   3.313            0.046     -0.671
     29       O      2       6.000    3.358   3.313            0.046     -0.671
     30       O      2       6.000    3.147   2.962            0.185     -0.109
     31       O      2       6.000    3.143   2.959            0.183     -0.102
     32       O      2       6.000    3.339   3.285            0.054     -0.624
     33       O      2       6.000    3.339   3.285            0.054     -0.624
     34       O      2       6.000    3.146   2.949            0.197     -0.095
     35       O      2       6.000    3.146   2.949            0.197     -0.095
     36       H      3       1.000    0.204   0.202            0.002      0.594
     37       H      3       1.000    0.204   0.202            0.002      0.594
     38       H      3       1.000    0.204   0.202            0.002      0.594
     39       H      3       1.000    0.204   0.202            0.002      0.594
     40       H      3       1.000    0.210   0.204            0.006      0.586
     41       H      3       1.000    0.210   0.204            0.006      0.586
     42       H      3       1.000    0.204   0.202            0.002      0.594
     43       H      3       1.000    0.204   0.202            0.002      0.594
     44       H      3       1.000    0.204   0.202            0.002      0.594
     45       H      3       1.000    0.204   0.202            0.002      0.594
     46       H      3       1.000    0.210   0.203            0.007      0.587
     47       H      3       1.000    0.210   0.203            0.007      0.587
     48       H      3       1.000    0.204   0.203            0.002      0.593
     49       H      3       1.000    0.204   0.203            0.001      0.593
     50       H      3       1.000    0.205   0.203            0.001      0.592
     51       H      3       1.000    0.204   0.203            0.002      0.593
     52       H      3       1.000    0.210   0.204            0.006      0.586
     53       H      3       1.000    0.210   0.204            0.006      0.586
     54       H      3       1.000    0.206   0.205            0.001      0.589
     55       H      3       1.000    0.206   0.205            0.001      0.589
     56       H      3       1.000    0.206   0.205            0.001      0.589
     57       H      3       1.000    0.206   0.205            0.001      0.589
     58       H      3       1.000    0.211   0.205            0.006      0.584
     59       H      3       1.000    0.211   0.205            0.006      0.584
     60       H      3       1.000    0.208   0.207            0.001      0.585
     61       H      3       1.000    0.208   0.207            0.001      0.585
     62       H      3       1.000    0.208   0.207            0.001      0.585
     63       H      3       1.000    0.208   0.207            0.001      0.586
     64       H      3       1.000    0.213   0.207            0.006      0.580
     65       H      3       1.000    0.213   0.207            0.005      0.580
     66       H      3       1.000    0.206   0.205            0.001      0.589
     67       H      3       1.000    0.206   0.205            0.001      0.590
     68       H      3       1.000    0.206   0.205            0.001      0.590
     69       H      3       1.000    0.206   0.205            0.001      0.589
     70       H      3       1.000    0.213   0.207            0.006      0.580
     71       H      3       1.000    0.213   0.207            0.005      0.580
     72       H      3       1.000    0.204   0.203            0.002      0.593
     73       H      3       1.000    0.204   0.203            0.001      0.593
     74       H      3       1.000    0.204   0.203            0.001      0.593
     75       H      3       1.000    0.204   0.203            0.002      0.593
     76       H      3       1.000    0.211   0.205            0.006      0.584
     77       H      3       1.000    0.211   0.205            0.006      0.584

  Total Charge                                                            6.015
 !-----------------------------------------------------------------------------!

 *** WARNING in dft_plus_u.F:1457 :: DFT+U energy contibution is negative ***
 *** possibly due to unphysical Mulliken charges. Check your input, if    ***
 *** this warning persists or try a different method!                     ***


 *** WARNING in dft_plus_u.F:1457 :: DFT+U energy contibution is negative ***
 *** possibly due to unphysical Mulliken charges. Check your input, if    ***
 *** this warning persists or try a different method!                     ***


 ENERGY| Total FORCE_EVAL ( QS ) energy (a.u.):            -1335.620411768783015


 --------  Informations at step =     0 ------------
  Optimization Method        =                   SD
  Total Energy               =     -1335.6204117688
  Used time                  =               16.619
 ---------------------------------------------------

 --------------------------
 OPTIMIZATION STEP:      1
 --------------------------

 Spin 1

 Number of electrons:                                                        175
 Number of occupied orbitals:                                                175
 Number of molecular orbitals:                                               175

 Spin 2

 Number of electrons:                                                        141
 Number of occupied orbitals:                                                141
 Number of molecular orbitals:                                               141

 Number of orbital functions:                                                441
 Number of independent orbital functions:                                    441

 Parameters for the always stable predictor-corrector (ASPC) method:

  ASPC order: 0

  B(1) =   1.000000

 Parameters for the always stable predictor-corrector (ASPC) method:

  ASPC order: 0

  B(1) =   1.000000

 Extrapolation method: ASPC


 SCF WAVEFUNCTION OPTIMIZATION

  ----------------------------------- OT ---------------------------------------
  Minimizer      : CG                  : conjugate gradient
  Preconditioner : FULL_KINETIC        : inversion of T + eS
  Precond_solver : DEFAULT
  Line search    : 2PNT                : 2 energies, one gradient
  stepsize       :    0.15000000                  energy_gap     :    0.20000000
  eps_taylor     :   0.10000E-15                  max_taylor     :             4
  ----------------------------------- OT ---------------------------------------

  Step     Update method      Time    Convergence         Total energy    Change
  ------------------------------------------------------------------------------

 *** WARNING in dft_plus_u.F:1457 :: DFT+U energy contibution is negative ***
 *** possibly due to unphysical Mulliken charges. Check your input, if    ***
 *** this warning persists or try a different method!                     ***

     1 OT CG       0.15E+00    1.7     0.00000063     -1335.6204117688 -1.34E+03

  *** SCF run converged in     1 steps ***


  Electronic density on regular grids:       -316.0000000003       -0.0000000003
  Core density on regular grids:              321.9999999999       -0.0000000001
  Total charge density on r-space grids:        5.9999999996
  Total charge density g-space grids:           5.9999999996

  Overlap energy of the core charge distribution:               0.00000038693973
  Self energy of the core charge distribution:              -2631.59580429473499
  Core Hamiltonian energy:                                    744.18621889842916
  Hartree energy:                                             755.99514868535584
  Exchange-correlation energy:                               -203.86774983165634

  DFT+U energy:                                                -0.33822561311621

  Total energy:                                             -1335.62041176878301

  outer SCF iter =    1 RMS gradient =   0.63E-06 energy =      -1335.6204117688
  outer SCF loop converged in   1 iterations or    1 steps


  Integrated absolute spin density  :                              34.0448816577
  Ideal and single determinant S**2 :                  306.000000     306.038221

 !-----------------------------------------------------------------------------!
                     Mulliken Population Analysis

 #  Atom  Element  Kind  Atomic population (alpha,beta) Net charge  Spin moment
       1     Fe       1         9.671532     5.062582     1.265886     4.608951
       2     Fe       1         9.671491     5.062372     1.266137     4.609120
       3     Fe       1         9.674282     5.071255     1.254463     4.603027
       4     Fe       1         9.667494     5.095822     1.236684     4.571672
       5     Fe       1         9.448062     5.454547     1.097391     3.993515
       6     Fe       1         9.666739     5.094238     1.239023     4.572501
       7     Fe       1         9.673798     5.070890     1.255312     4.602908
       8     O        2         3.247370     3.221192    -0.468562     0.026179
       9     O        2         3.247352     3.221170    -0.468522     0.026182
      10     O        2         3.402956     3.255796    -0.658752     0.147160
      11     O        2         3.402949     3.255678    -0.658627     0.147271
      12     O        2         3.247418     3.221210    -0.468628     0.026208
      13     O        2         3.247421     3.221167    -0.468588     0.026255
      14     O        2         3.403129     3.252895    -0.656024     0.150234
      15     O        2         3.403131     3.252876    -0.656007     0.150255
      16     O        2         3.247838     3.221623    -0.469461     0.026214
      17     O        2         3.247837     3.221637    -0.469474     0.026199
      18     O        2         3.402953     3.256280    -0.659233     0.146673
      19     O        2         3.402935     3.256144    -0.659079     0.146791
      20     O        2         3.252641     3.232012    -0.484653     0.020630
      21     O        2         3.252565     3.231854    -0.484419     0.020711
      22     O        2         3.403057     3.260588    -0.663646     0.142469
      23     O        2         3.402978     3.260473    -0.663451     0.142504
      24     O        2         3.257790     3.262915    -0.520705    -0.005125
      25     O        2         3.258062     3.263252    -0.521314    -0.005189
      26     O        2         3.410905     3.274382    -0.685287     0.136523
      27     O        2         3.410297     3.275329    -0.685626     0.134968
      28     O        2         3.252561     3.232426    -0.484987     0.020135
      29     O        2         3.252481     3.232275    -0.484756     0.020206
      30     O        2         3.411046     3.273921    -0.684966     0.137125
      31     O        2         3.410447     3.274849    -0.685296     0.135599
      32     O        2         3.248024     3.222194    -0.470219     0.025830
      33     O        2         3.248024     3.222180    -0.470204     0.025844
      34     O        2         3.403314     3.260357    -0.663671     0.142956
      35     O        2         3.403235     3.260248    -0.663483     0.142986
      36     H        3         0.335373     0.332950     0.331677     0.002423
      37     H        3         0.335360     0.333059     0.331582     0.002301
      38     H        3         0.335367     0.333068     0.331565     0.002300
      39     H        3         0.335347     0.332929     0.331725     0.002418
      40     H        3         0.347280     0.339870     0.312850     0.007410
      41     H        3         0.347291     0.339876     0.312833     0.007415
      42     H        3         0.335339     0.332919     0.331743     0.002420
      43     H        3         0.335321     0.333020     0.331659     0.002301
      44     H        3         0.335335     0.333033     0.331633     0.002302
      45     H        3         0.335310     0.332895     0.331795     0.002416
      46     H        3         0.346279     0.338589     0.315132     0.007690
      47     H        3         0.346279     0.338584     0.315137     0.007695
      48     H        3         0.336060     0.334025     0.329915     0.002034
      49     H        3         0.336040     0.334037     0.329923     0.002003
      50     H        3         0.336090     0.334089     0.329821     0.002001
      51     H        3         0.336016     0.333975     0.330009     0.002041
      52     H        3         0.347464     0.340073     0.312463     0.007390
      53     H        3         0.347473     0.340080     0.312447     0.007393
      54     H        3         0.339052     0.337508     0.323440     0.001545
      55     H        3         0.338950     0.337343     0.323707     0.001607
      56     H        3         0.338877     0.337250     0.323873     0.001628
      57     H        3         0.339043     0.337496     0.323461     0.001547
      58     H        3         0.348964     0.341595     0.309442     0.007369
      59     H        3         0.349048     0.341691     0.309261     0.007357
      60     H        3         0.342956     0.341120     0.315924     0.001836
      61     H        3         0.342947     0.341044     0.316009     0.001903
      62     H        3         0.343218     0.341308     0.315474     0.001910
      63     H        3         0.342808     0.340976     0.316217     0.001832
      64     H        3         0.353316     0.346975     0.299709     0.006342
      65     H        3         0.353157     0.347182     0.299661     0.005976
      66     H        3         0.339046     0.337401     0.323553     0.001646
      67     H        3         0.338944     0.337237     0.323820     0.001707
      68     H        3         0.338849     0.337125     0.324026     0.001724
[...]
 flops    38 x    32 x    13           1189773312     100.0%      0.0%      0.0%
 flops    15 x    32 x    38           1242144000     100.0%      0.0%      0.0%
 flops    32 x    15 x    38           1242144000     100.0%      0.0%      0.0%
 flops    38 x    32 x    38           1255101696     100.0%      0.0%      0.0%
 flops     8 x    19 x    15           1301314560     100.0%      0.0%      0.0%
 flops    19 x     8 x    15           1301314560     100.0%      0.0%      0.0%
 flops     2 x    13 x    19           1432607904     100.0%      0.0%      0.0%
 flops    19 x    13 x     2           1432607904     100.0%      0.0%      0.0%
 flops    36 x    13 x    37           1463271264     100.0%      0.0%      0.0%
 flops    37 x    13 x    36           1463271264     100.0%      0.0%      0.0%
 flops     2 x    15 x    19           1617817320     100.0%      0.0%      0.0%
 flops    19 x    15 x     2           1617817320     100.0%      0.0%      0.0%
 flops    36 x    15 x    37           1688389920     100.0%      0.0%      0.0%
 flops    37 x    15 x    36           1688389920     100.0%      0.0%      0.0%
 flops    38 x    15 x    32           1716019200     100.0%      0.0%      0.0%
 flops    38 x    32 x    15           1716019200     100.0%      0.0%      0.0%
 flops     8 x     8 x    13           1967300608     100.0%      0.0%      0.0%
 flops    19 x    13 x    19           2268295848     100.0%      0.0%      0.0%
 flops     8 x     8 x    15           2269962240     100.0%      0.0%      0.0%
 flops     2 x    13 x     8           2412813312     100.0%      0.0%      0.0%
 flops     8 x    13 x     2           2412813312     100.0%      0.0%      0.0%
 flops    32 x    32 x    13           2519269376     100.0%      0.0%      0.0%
 flops    13 x    32 x    32           2519269376     100.0%      0.0%      0.0%
 flops    32 x    13 x    32           2519269376     100.0%      0.0%      0.0%
 flops    19 x    15 x    19           2561544090     100.0%      0.0%      0.0%
 flops    37 x    13 x    37           2631855954     100.0%      0.0%      0.0%
 flops     2 x    15 x     8           2724744960     100.0%      0.0%      0.0%
 flops     8 x    15 x     2           2724744960     100.0%      0.0%      0.0%
 flops    37 x    15 x    37           3036756870     100.0%      0.0%      0.0%
 flops    13 x    32 x    36           3263569920     100.0%      0.0%      0.0%
 flops    32 x    13 x    36           3263569920     100.0%      0.0%      0.0%
 flops     8 x    13 x    19           3820287744     100.0%      0.0%      0.0%
 flops    19 x    13 x     8           3820287744     100.0%      0.0%      0.0%
 flops    32 x    32 x    15           3991296000     100.0%      0.0%      0.0%
 flops    15 x    32 x    32           3991296000     100.0%      0.0%      0.0%
 flops    32 x    15 x    32           3991296000     100.0%      0.0%      0.0%
 flops     8 x    15 x    19           4314179520     100.0%      0.0%      0.0%
 flops    19 x    15 x     8           4314179520     100.0%      0.0%      0.0%
 flops    36 x    13 x    32           4508614656     100.0%      0.0%      0.0%
 flops    36 x    32 x    13           4508614656     100.0%      0.0%      0.0%
 flops    15 x    32 x    36           4707072000     100.0%      0.0%      0.0%
 flops    32 x    15 x    36           4707072000     100.0%      0.0%      0.0%
 flops    36 x    32 x    38           4756174848     100.0%      0.0%      0.0%
 flops    38 x    32 x    36           4756174848     100.0%      0.0%      0.0%
 flops    13 x    32 x    37           5869893120     100.0%      0.0%      0.0%
 flops    32 x    13 x    37           5869893120     100.0%      0.0%      0.0%
 flops     2 x     2 x    32           6058450944     100.0%      0.0%      0.0%
 flops     8 x    13 x     8           6434168832     100.0%      0.0%      0.0%
 flops    36 x    15 x    32           6502809600     100.0%      0.0%      0.0%
 flops    36 x    32 x    15           6502809600     100.0%      0.0%      0.0%
 flops     8 x    15 x     8           7265986560     100.0%      0.0%      0.0%
 flops    37 x    32 x    13           8109244416     100.0%      0.0%      0.0%
 flops    37 x    13 x    32           8109244416     100.0%      0.0%      0.0%
 flops    15 x    32 x    37           8466192000     100.0%      0.0%      0.0%
 flops    32 x    15 x    37           8466192000     100.0%      0.0%      0.0%
 flops    37 x    32 x    38           8554508928     100.0%      0.0%      0.0%
 flops    38 x    32 x    37           8554508928     100.0%      0.0%      0.0%
 flops    19 x     2 x    32           9369464832     100.0%      0.0%      0.0%
 flops     2 x    19 x    32           9369464832     100.0%      0.0%      0.0%
 flops    37 x    32 x    15          11696025600     100.0%      0.0%      0.0%
 flops    37 x    15 x    32          11696025600     100.0%      0.0%      0.0%
 flops     8 x     2 x    32          15780151296     100.0%      0.0%      0.0%
 flops     2 x     8 x    32          15780151296     100.0%      0.0%      0.0%
 flops    19 x    19 x    32          16954269696     100.0%      0.0%      0.0%
 flops    36 x    32 x    36          18023399424     100.0%      0.0%      0.0%
 flops     2 x    32 x     2          19807828992     100.0%      0.0%      0.0%
 flops    32 x    32 x    38          21729239040     100.0%      0.0%      0.0%
 flops     8 x    19 x    32          24985239552     100.0%      0.0%      0.0%
 flops    19 x     8 x    32          24985239552     100.0%      0.0%      0.0%
 flops    38 x    32 x    32          30018895872     100.0%      0.0%      0.0%
 flops    19 x    32 x     2          31362395904     100.0%      0.0%      0.0%
 flops     2 x    32 x    19          31362395904     100.0%      0.0%      0.0%
 flops    37 x    32 x    36          32417086464     100.0%      0.0%      0.0%
 flops    36 x    32 x    37          32417086464     100.0%      0.0%      0.0%
 flops     8 x     8 x    32          43583275008     100.0%      0.0%      0.0%
 flops    19 x    32 x    19          49657126848     100.0%      0.0%      0.0%
 flops     8 x    32 x     2          52820877312     100.0%      0.0%      0.0%
 flops     2 x    32 x     8          52820877312     100.0%      0.0%      0.0%
 flops    37 x    32 x    37          58305731904     100.0%      0.0%      0.0%
 flops    32 x    32 x    32          67378937856     100.0%      0.0%      0.0%
 flops    32 x    32 x    36          82342379520     100.0%      0.0%      0.0%
 flops    19 x    32 x     8          83633055744     100.0%      0.0%      0.0%
 flops     8 x    32 x    19          83633055744     100.0%      0.0%      0.0%
 flops    36 x    32 x    32         113755815936     100.0%      0.0%      0.0%
 flops     8 x    32 x     8         140855672832     100.0%      0.0%      0.0%
 flops    32 x    32 x    37         148101918720     100.0%      0.0%      0.0%
 flops    37 x    32 x    32         204602474496     100.0%      0.0%      0.0%
 flops inhomo. stacks                           0       0.0%      0.0%      0.0%
 flops total                         1.779821E+12     100.0%      0.0%      0.0%
 flops max/rank                     37.983599E+09     100.0%      0.0%      0.0%
 matmuls inhomo. stacks                         0       0.0%      0.0%      0.0%
 matmuls total                          430329503     100.0%      0.0%      0.0%
 number of processed stacks              94148613     100.0%      0.0%      0.0%
 average stack size                                     4.6       0.0       0.0
 marketing flops                     1.963209E+12
 -------------------------------------------------------------------------------
 # multiplications                          62568
 max memory usage/rank             645.480448E+06
 # max total images/rank                        1
 # max 3D layers                                1
 # MPI messages exchanged               198215424
 MPI messages size (bytes):
  total size                       742.984778E+09
  min size                           0.000000E+00
  max size                          11.552000E+03
  average size                       3.748370E+03
 MPI breakdown and total messages size (bytes):
             size <=      128           112967723                        0
       128 < size <=     8192            23025409             129011356760
      8192 < size <=    32768            62222292             613650762648
     32768 < size <=   131072                   0                        0
    131072 < size <=  4194304                   0                        0
   4194304 < size <= 16777216                   0                        0
  16777216 < size                               0                        0
 -------------------------------------------------------------------------------

 MEMORY| Estimated peak process memory [MiB]                                 616

 -------------------------------------------------------------------------------
 ----                             MULTIGRID INFO                            ----
 -------------------------------------------------------------------------------
 count for grid        1:        5706242          cutoff [a.u.]          325.00
 count for grid        2:        2932296          cutoff [a.u.]          108.33
 count for grid        3:        2255568          cutoff [a.u.]           36.11
 count for grid        4:        1093015          cutoff [a.u.]           12.04
 count for grid        5:          12960          cutoff [a.u.]            4.01
 count for grid        6:              0          cutoff [a.u.]            1.34
 count for grid        7:              0          cutoff [a.u.]            0.45
 count for grid        8:              0          cutoff [a.u.]            0.15
 count for grid        9:              0          cutoff [a.u.]            0.05
 count for grid       10:              0          cutoff [a.u.]            0.02
 total gridlevel count  :       12000081

 -------------------------------------------------------------------------------
 -                                                                             -
 -                         MESSAGE PASSING PERFORMANCE                         -
 -                                                                             -
 -------------------------------------------------------------------------------

 ROUTINE             CALLS      AVE VOLUME [Bytes]
 MP_Group             2665
 MP_Bcast            20344                  18460.
 MP_Allreduce       376790                     46.
 MP_Sync             69066
 MP_Alltoall        380922                4991638.
 MP_ISendRecv      9875008                  34181.
 MP_Wait          17769928
 MP_ISend          4136712                  67810.
 MP_IRecv          4113312                  67455.
 MP_Recv              4114                  47628.
 MP_Memory         2480926
 -------------------------------------------------------------------------------


 -------------------------------------------------------------------------------
 -                                                                             -
 -                           R E F E R E N C E S                               -
 -                                                                             -
 -------------------------------------------------------------------------------
 
 CP2K version 6.1, the CP2K developers group (2018).
 CP2K is freely available from https://www.cp2k.org/ .

 Schuett, Ole; Messmer, Peter; Hutter, Juerg; VandeVondele, Joost. 
 Electronic Structure Calculations on Graphics Processing Units, John Wiley & Sons, Ltd, 173-190 (2016). 
 GPU-Accelerated Sparse Matrix-Matrix Multiplication for Linear Scaling Density Functional Theory.
 http://dx.doi.org/10.1002/9781118670712.ch8


 Borstnik, U; VandeVondele, J; Weber, V; Hutter, J. 
 PARALLEL COMPUTING, 40 (5-6), 47-58 (2014). 
 Sparse matrix multiplication: The distributed block-compressed sparse
 row library.
 http://dx.doi.org/10.1016/j.parco.2014.03.012


 Hutter, J; Iannuzzi, M; Schiffmann, F; VandeVondele, J. 
 WILEY INTERDISCIPLINARY REVIEWS-COMPUTATIONAL MOLECULAR SCIENCE, 4 (1), 15-25 (2014). 
 CP2K: atomistic simulations of condensed matter systems.
 http://dx.doi.org/10.1002/wcms.1159


 Krack, M. 
 THEORETICAL CHEMISTRY ACCOUNTS, 114 (1-3), 145-152 (2005). 
 Pseudopotentials for H to Kr optimized for gradient-corrected
 exchange-correlation functionals.
 http://dx.doi.org/10.1007/s00214-005-0655-y


 VandeVondele, J; Krack, M; Mohamed, F; Parrinello, M; Chassaing, T;
 Hutter, J. COMPUTER PHYSICS COMMUNICATIONS, 167 (2), 103-128 (2005). 
 QUICKSTEP: Fast and accurate density functional calculations using a
 mixed Gaussian and plane waves approach.
 http://dx.doi.org/10.1016/j.cpc.2004.12.014


 Frigo, M; Johnson, SG. 
 PROCEEDINGS OF THE IEEE, 93 (2), 216-231 (2005). 
 The design and implementation of FFTW3.
 http://dx.doi.org/10.1109/JPROC.2004.840301


 Kolafa, J. 
 JOURNAL OF COMPUTATIONAL CHEMISTRY, 25 (3), 335-342 (2004). 
 Time-reversible always stable predictor-corrector method for molecular dynamics of polarizable molecules.
 http://dx.doi.org/10.1002/jcc.10385


 VandeVondele, J; Hutter, J. 
 JOURNAL OF CHEMICAL PHYSICS, 118 (10), 4365-4369 (2003). 
 An efficient orbital transformation method for electronic structure
 calculations.
 http://dx.doi.org/10.1063/1.1543154


 Hartwigsen, C; Goedecker, S; Hutter, J. 
 PHYSICAL REVIEW B, 58 (7), 3641-3662 (1998). 
 Relativistic separable dual-space Gaussian pseudopotentials from H to Rn.
 http://dx.doi.org/10.1103/PhysRevB.58.3641


 Dudarev, SL; Botton, GA; Savrasov, SY; Humphreys, CJ; Sutton, AP. 
 PHYSICAL REVIEW B, 57 (3), 1505-1509 (1998). 
 Electron-energy-loss spectra and the structural stability of
 nickel oxide: An LSDA+U study.
 http://dx.doi.org/10.1103/PhysRevB.57.1505


 Lippert, G; Hutter, J; Parrinello, M. 
 MOLECULAR PHYSICS, 92 (3), 477-487 (1997). 
 A hybrid Gaussian and plane wave density functional scheme.
 http://dx.doi.org/10.1080/002689797170220


 Dudarev, SL; Manh, DN; Sutton, AP. 
 PHILOSOPHICAL MAGAZINE B, 75 (5), 613-628 (1997). 
 Effect of Mott-Hubbard correlations on the electronic
 structure and structural stability of uranium dioxide.
 http://dx.doi.org/10.1080/13642819708202343


 Goedecker, S; Teter, M; Hutter, J. 
 PHYSICAL REVIEW B, 54 (3), 1703-1710 (1996). 
 Separable dual-space Gaussian pseudopotentials.
 http://dx.doi.org/10.1103/PhysRevB.54.1703


 BECKE, AD. PHYSICAL REVIEW A, 38 (6), 3098-3100 (1988). 
 DENSITY-FUNCTIONAL EXCHANGE-ENERGY APPROXIMATION WITH CORRECT
 ASYMPTOTIC-BEHAVIOR.
 http://dx.doi.org/10.1103/PhysRevA.38.3098


 LEE, CT; YANG, WT; PARR, RG. 
 PHYSICAL REVIEW B, 37 (2), 785-789 (1988). 
 DEVELOPMENT OF THE COLLE-SALVETTI CORRELATION-ENERGY FORMULA INTO A
 FUNCTIONAL OF THE ELECTRON-DENSITY.
 http://dx.doi.org/10.1103/PhysRevB.37.785


 -------------------------------------------------------------------------------
 -                                                                             -
 -                                T I M I N G                                  -
 -                                                                             -
 -------------------------------------------------------------------------------
 SUBROUTINE                       CALLS  ASD         SELF TIME        TOTAL TIME
                                MAXIMUM       AVERAGE  MAXIMUM  AVERAGE  MAXIMUM
 CP2K                                 1  1.0    0.139    0.160 7425.535 7425.540
 cp_geo_opt                           1  2.0    0.023    0.031 7424.683 7424.683
 geoopt_cg                            1  3.0    0.000    0.000 7424.661 7424.670
 cp_cg_main                           1  4.0    0.002    0.005 7424.660 7424.670
 cp_eval_at                         105  6.0    0.010    0.013 7424.620 7424.641
 qs_forces                          104  7.0    0.008    0.009 7389.495 7389.517
 qs_energies                        105  8.0    0.007    0.009 7151.688 7151.711
 scf_env_do_scf                     105  9.0    0.005    0.010 7015.782 7015.805
 scf_env_do_scf_inner_loop         2703 10.0    0.087    0.215 6746.172 6747.129
 pw_transfer                     128069 15.3    5.457    6.380 5182.942 5248.612
 fft_wrap_pw1pw2                 122455 16.3    0.756    0.930 5154.983 5220.784
 rebuild_ks_matrix                 2807 11.9    0.005    0.006 4939.219 4939.704
 qs_ks_build_kohn_sham_matrix      2807 12.9    0.952    1.211 4939.214 4939.698
 fft_wrap_pw1pw2_330              44767 17.8  218.468  239.595 4858.505 4925.817
 qs_ks_update_qs_env               2808 11.0    0.073    0.079 4669.439 4670.006
 fft3d_ps                        122455 18.3 1913.171 2314.516 4375.863 4460.706
 qs_vxc_create                     2807 13.9    0.031    0.046 3784.299 3794.194
 cg_linmin                           52  5.0    0.000    0.000 3753.390 3753.390
 linmin_2pnt                         52  6.0    0.000    0.001 3753.390 3753.390
 xc_vxc_pw_create                  1508 14.8   38.913   45.362 2727.806 2737.611
 qs_rho_update_rho                 2808 11.0    0.018    0.022 2336.576 2337.053
 calculate_rho_elec                5616 12.0   56.532  145.390 2336.558 2337.034
 xc_rho_set_and_dset_create        2807 15.9  101.164  128.686 2191.501 2264.534
 mp_alltoall_z22v                122455 20.3 1986.799 2189.239 1986.799 2189.239
 density_rs2pw                     5616 13.0    0.371    0.430 2083.678 2171.174
 x_to_yz                          29998 20.1  280.440  364.364 1360.564 1413.227
 yz_to_x                          23401 19.1  124.676  153.516 1026.712 1131.806
 rs_pw_transfer                   86844 15.0    0.672    0.868 1057.357 1084.744
 xc_exc_calc                       1299 15.0    4.353    5.665 1056.462 1056.673
 sum_up_and_integrate              1508 13.8    5.976    7.953  858.976  859.435
 integrate_v_rspace                3016 14.8   18.334   54.624  852.994  854.204
 potential_pw2rs                   3016 15.8    0.755    0.928  791.155  792.579
 rs_pw_transfer_RS2PW_330          5826 15.0  160.904  201.892  297.237  338.111
 mp_waitany                      956832 16.9  244.845  303.991  244.845  303.991
 pw_scatter_p                     54126 19.4  279.501  298.999  279.501  298.999
 mp_waitall_1                   ******* 17.8  225.612  283.293  225.612  283.293
 pw_gather_p                      68329 17.4  270.443  281.330  270.443  281.330
 qs_ks_update_qs_env_forces         104  8.0    0.001    0.002  271.753  271.775
 init_scf_loop                      105 10.0    0.003    0.005  268.208  268.226
 mp_sum_d                         62890 16.1  175.141  232.221  175.141  232.221
 fft_wrap_pw1pw2_110               8632 17.0    8.327   10.983  208.182  229.596
 rs_pw_transfer_RS2PW_40           5616 15.0   86.466   98.164  175.541  179.336
 pw_derive                        25890 16.5  169.398  176.927  169.398  176.927
 rs_pw_transfer_PW2RS_330          3330 17.4   97.310  113.305  163.864  169.175
 rs_pw_transfer_RS2PW_110          5616 15.0   76.759   87.326  135.336  161.741
 -------------------------------------------------------------------------------

 The number of warnings for this run is : 2911
 
 -------------------------------------------------------------------------------
  **** **** ******  **  PROGRAM ENDED AT                 2019-08-06 15:57:07.252
 ***** ** ***  *** **   PROGRAM RAN ON            cpn-u26-19.cbls.ccr.buffalo.ed
 **    ****   ******    PROGRAM RAN BY                                  pavankum
 ***** **    ** ** **   PROGRAM PROCESS ID                                331269
  **** **  *******  **  PROGRAM STOPPED IN /projects/academic/mdupuis2/pavan/VAB
                                           _calculation/results_for_paper/3.1D_F
                                           e_7units/blyp_plusU9/gopt_state0
