     270
 i =        6, E =    -15928.4936462912
 Fe         0.0325536845        2.9284039881       13.7437738982
 Fe         2.4864387259        4.3453490681        4.8988728102
 Fe         2.4866148692        1.5115069487        9.3212645411
 Fe         2.4867114610        4.3450783547        2.1143001977
 Fe         2.4866410439        1.5114907812        6.5367074782
 Fe         0.0327308925        2.9282549176       10.9591682005
 Fe         0.0325080933        2.9283169329        4.3254724260
 Fe         2.4865033852        4.3455111183        8.7475307399
 Fe         2.4866304468        1.5114806957       13.1703235285
 Fe         2.4866258230        1.5115011748        2.6875966615
 Fe         0.0324938012        2.9285476833        7.1099431160
 Fe         2.4866505299        4.3455006276       11.5323032944
 Fe         4.9407555615        2.9283287119       13.7437679150
 Fe         7.3950531374        4.3451703694        4.8990572946
 Fe         7.3948648816        1.5115675951        9.3215050921
 Fe         7.3950700482        4.3451212458        2.1144409639
 Fe         7.3947418852        1.5111503857        6.5372010045
 Fe         4.9405556980        2.9282632125       10.9591670215
 Fe         4.9407065329        2.9284050944        4.3254658039
 Fe         7.3951084780        4.3451993701        8.7477866848
 Fe         7.3948932737        1.5115832904       13.1704204893
 Fe         7.3947369597        1.5112823153        2.6877189853
 Fe         4.9408834833        2.9283175050        7.1099399191
 Fe         7.3948419167        4.3451441223       11.5325220836
 Fe         9.8491184535        2.9285966813       13.7439125145
 Fe        12.3032327508        4.3454662653        4.8990727924
 Fe        12.3035583042        1.5117638405        9.3212858676
 Fe        12.3032950994        4.3455142902        2.1144446879
 Fe        12.3035246927        1.5109756101        6.5365817623
 Fe         9.8492188196        2.9284786019       10.9592666992
 Fe         9.8492276574        2.9281617338        4.3255731368
 Fe        12.3031833301        4.3454884205        8.7477807952
 Fe        12.3033369126        1.5116058189       13.1704309820
 Fe        12.3034777676        1.5117827426        2.6875054520
 Fe         9.8493153962        2.9282018128        7.1100450124
 Fe        12.3033928988        4.3453055454       11.5325118129
 Fe        -2.4218629884        7.1790393918       13.7439223451
 Fe         0.0326672353        8.5952630056        4.8983651034
 Fe         0.0324541932        5.7621002889        9.3215101584
 Fe         0.0324151294        8.5960161059        2.1140749932
 Fe         0.0328810844        5.7622273173        6.5372001208
 Fe        -2.4217896810        7.1791736253       10.9592697714
 Fe        -2.4215315554        7.1793375917        4.3255662774
 Fe         0.0317437260        8.5957788765        8.7488088955
 Fe         0.0324401447        5.7621079837       13.1704122827
 Fe         0.0327640325        5.7621619900        2.6877109433
 Fe        -2.4216161183        7.1794248145        7.1100366595
 Fe         0.0324738853        8.5959722862       11.5331221396
 Fe         2.4865348863        7.1788246989       13.7438838818
 Fe         4.9413241931        8.5965265622        4.8983498323
 Fe         4.9408413121        5.7617475639        9.3212852071
 Fe         4.9407896632        8.5959122031        2.1140755241
 Fe         4.9401638049        5.7621507227        6.5365927208
 Fe         2.4866029780        7.1792889602       10.9591813136
 Fe         2.4869093949        7.1789729056        4.3251972590
 Fe         4.9413047186        8.5954466967        8.7488479912
 Fe         4.9408269795        5.7620092901       13.1704424975
 Fe         4.9408759757        5.7618425773        2.6875024047
 Fe         2.4870088020        7.1801584249        7.1096482977
 Fe         4.9408105449        8.5959994776       11.5331290036
 Fe         7.3950608106        7.1789325405       13.7439111808
 Fe         9.8488762746        8.5959172502        4.8990621100
 Fe         9.8490558957        5.7621806276        9.3212798510
 Fe         9.8488556862        8.5959426879        2.1144426868
 Fe         9.8490632885        5.7621958977        6.5367341556
 Fe         7.3949368199        7.1789218729       10.9592769921
 Fe         7.3946429164        7.1790536764        4.3255705455
 Fe         9.8488910980        8.5958630239        8.7477822771
 Fe         9.8490701818        5.7621892941       13.1706522530
 Fe         9.8490721771        5.7621913284        2.6880432468
 Fe         7.3946134324        7.1789652775        7.1100506282
 Fe         9.8489749764        8.5961499187       11.5325169829
 Fe        -4.8758549053       11.4298377909       13.7437712508
 Fe        -2.4215307203       12.8468221588        4.8988842543
 Fe        -2.4220871779       10.0130709473        9.3212743296
 Fe        -2.4218626462       12.8467393907        2.1143028415
 Fe        -2.4213557883       10.0134485115        6.5365823001
 Fe        -4.8757815526       11.4300620296       10.9591614280
 Fe        -4.8757495389       11.4298208253        4.3254707309
 Fe        -2.4214004638       12.8466953859        8.7475359485
 Fe        -2.4218232957       10.0129342746       13.1704294542
 Fe        -2.4220269515       10.0129876952        2.6874932351
 Fe        -4.8759320187       11.4297436877        7.1099461350
 Fe        -2.4214979472       12.8465960708       11.5323042669
 Fe         0.0323092233       11.4300152763       13.7438877801
 Fe         2.4858734744       12.8468960547        4.8983454343
 Fe         2.4866198046       10.0128708485        9.3206672807
 Fe         2.4867138407       12.8467653608        2.1140570780
 Fe         2.4866481701       10.0128937521        6.5371621797
 Fe         0.0326721241       11.4297352478       10.9591810126
 Fe         0.0322465035       11.4296115706        4.3251874008
 Fe         2.4868436175       12.8474100114        8.7488110522
 Fe         2.4866393156       10.0128883989       13.1704558695
 Fe         2.4866279049       10.0129085875        2.6875046644
 Fe         0.0332330051       11.4289616556        7.1096669545
 Fe         2.4866044412       12.8467269159       11.5331124316
 Fe         4.9410616009       11.4298318969       13.7438853242
 Fe         7.3949565007       12.8465005010        4.8988864991
 Fe         7.3949955214       10.0128843247        9.3214922662
 Fe         7.3950844025       12.8468578353        2.1142884058
 Fe         7.3947234328       10.0131919442        6.5371828793
 Fe         4.9406127097       11.4296629351       10.9591668537
 Fe         4.9407682434       11.4300999906        4.3251848542
 Fe         7.3947796625       12.8464488928        8.7475357010
 Fe         7.3950186892       10.0128706225       13.1704250195
 Fe         7.3948205514       10.0131477383        2.6877150547
 Fe         4.9396859286       11.4295749479        7.1096671754
 Fe         7.3947388416       12.8466058977       11.5323073197
  O        -0.9181246445        4.3452590011        3.5064930992
  O         3.9901057774        1.5114409625        7.9289067612
  O         1.5359297600        2.9283533368       12.3514032861
  O         4.1892467282        1.3966021485        3.5063240792
  O         1.7350265853        2.8133927234        7.9289094261
  O        -0.7190510504        4.2302250628       12.3515200513
  O         1.7348792669        3.0433135343        3.5063587262
  O        -0.7191003699        4.4601656154        7.9290217112
  O         4.1892034389        1.6264144623       12.3514737608
  O         0.9833972056        1.5115270753       14.5627241559
  O         3.4374787628        2.9282689070        5.7176044798
  O         0.9834366036        4.3453255549       10.1401507794
  O         0.7843199682        4.4602667922       14.5626070258
  O         0.7843532852        1.6264026772        5.7175986379
  O         3.2383765967        3.0432084074       10.1401986875
  O         3.2384329601        2.8133339598       14.5627516106
  O         0.7841928938        4.2303614582        5.7177607909
  O         0.7843355794        1.3964940053       10.1402521250
  O         3.9901225903        4.3452163438        3.5064706257
  O         8.8984159293        1.5114000470        7.9290294165
  O         6.4441691698        2.9283099123       12.3514879084
  O         9.0974654617        1.3964442072        3.5064752524
  O         6.6432667898        2.8134018296        7.9289721351
  O         4.1891585734        4.2302342733       12.3513952670
  O         6.6433025112        3.0432376939        3.5065564217
  O         4.1892033861        4.4602799324        7.9288419610
  O         9.0975508610        1.6264890029       12.3516269899
  O         5.8916944950        1.5113646049       14.5626124617
  O         8.3459147916        2.9282447617        5.7177733829
  O         5.8916883586        4.3450951280       10.1401541197
  O         5.6925598826        4.4601001112       14.5627657253
  O         5.6926222804        1.6263996305        5.7177058172
  O         8.1467698886        3.0432049160       10.1401848805
  O         8.1467142070        2.8133376782       14.5626809000
  O         5.6924748783        4.2303394390        5.7177525831
  O         5.6925576994        1.3963974985       10.1401860192
  O         8.8983646174        4.3451403811        3.5064863351
  O        13.8065850415        1.5114238042        7.9287764741
  O        11.3525618608        2.9283780365       12.3514037503
  O        14.0057649340        1.3965098301        3.5064878861
  O        11.5516355712        2.8133973467        7.9291123373
  O         9.0975251932        4.2302904995       12.3512999964
  O        11.5516789983        3.0432967897        3.5065220784
  O         9.0976098281        4.4600755199        7.9289872039
  O        14.0057966867        1.6264168502       12.3514318375
  O        10.7998781580        1.5114630016       14.5627034556
  O        13.2540682964        2.9282810914        5.7177119460
  O        10.7999761605        4.3453272994       10.1401968319
  O        10.6009131344        4.4603233219       14.5627239510
  O        10.6007371114        1.6262159129        5.7176220940
  O        13.0551000571        3.0433883492       10.1401392749
  O        13.0550354965        2.8134419331       14.5628213168
  O        10.6009677582        4.2302231780        5.7179370798
  O        10.6008766607        1.3963862432       10.1401915819
  O        -3.3723615412        8.5960138338        3.5064752492
  O         1.5359713919        5.7624111956        7.9288284447
  O        -0.9183105639        7.1790720967       12.3515811410
  O         1.7350838753        5.6472175314        3.5064320479
  O        -0.7190981517        7.0641355970        7.9290391005
  O        -3.1732937091        8.4809901644       12.3514172546
  O        -0.7190658809        7.2940329910        3.5065283578
  O        -3.1732986581        8.7109184487        7.9291439321
  O         1.7350493626        5.8769665095       12.3516155070
  O        -1.4707417464        5.7622043596       14.5626215755
  O         0.9832086101        7.1789004193        5.7175101740
  O        -1.4707156843        8.5960689489       10.1401541136
  O        -1.6698434298        8.7108285471       14.5626821779
  O        -1.6698361027        5.8772512237        5.7177515839
  O         0.7839304382        7.2939425210       10.1404734430
  O         0.7841867493        7.0640495609       14.5626806568
  O        -1.6697128417        8.4810008819        5.7176704516
  O        -1.6698532418        5.6473040565       10.1402299734
  O         1.5357269806        8.5957534426        3.5065042710
  O         6.4442259394        5.7620992602        7.9290879953
  O         3.9900798081        7.1788845030       12.3513919603
  O         6.6432697925        5.6471279832        3.5064755074
  O         4.1890729761        7.0639869117        7.9290421631
  O         1.7349690897        8.4809010889       12.3516274077
  O         4.1891304208        7.2941265009        3.5063343743
  O         1.7348927209        8.7106699445        7.9290858165
  O         6.6433259503        5.8770557391       12.3514586448
  O         3.4374960272        5.7619574956       14.5627231772
  O         5.8915289704        7.1792167254        5.7176527708
  O         3.4373705015        8.5959199022       10.1403592811
  O         3.2382464546        8.7108910887       14.5625061663
  O         3.2383488382        5.8767876407        5.7176063529
  O         5.6924305952        7.2939801041       10.1401506617
  O         5.6925702009        7.0641540105       14.5627448727
  O         3.2378766353        8.4805217620        5.7178095071
  O         3.2382913958        5.6470749572       10.1401487390
  O         6.4442020512        8.5959494502        3.5064517644
  O        11.3525604184        5.7623468944        7.9289430589
  O         8.8983629369        7.1789899959       12.3512903664
  O        11.5516998114        5.6472125180        3.5065135699
  O         9.0972632377        7.0640119376        7.9289610709
  O         6.6433501756        8.4808722860       12.3515808503
  O         9.0973795186        7.2940569276        3.5065442013
  O         6.6432458822        8.7108854391        7.9290704555
  O        11.5515798180        5.8771470715       12.3513451615
  O         8.3458829034        5.7620299858       14.5627504966
  O        10.7999240429        7.1792261926        5.7178978261
  O         8.3456682354        8.5959364566       10.1402022357
  O         8.1466332582        8.7108725966       14.5626244983
  O         8.1465426445        5.8769890683        5.7178807787
  O        10.6007565900        7.2939749231       10.1401709940
  O        10.6006617681        7.0640774165       14.5627799910
  O         8.1465010822        8.4809293452        5.7178103561
  O         8.1467227774        5.6471203229       10.1402362882
  O        -5.8264194796       12.8464992673        3.5063061544
  O        -0.9182430611       10.0129799556        7.9290158965
  O        -3.3723711419       11.4297827832       12.3513867368
  O        -0.7189930624        9.8978722004        3.5062900215
  O        -3.1732133314       11.3147137775        7.9287924839
  O        -5.6273906765       12.7316439434       12.3514128661
  O        -3.1732995312       11.5446916545        3.5065253784
  O        -5.6274111741       12.9615900166        7.9289702086
  O        -0.7192281837       10.1278952320       12.3514457407
  O        -3.9249996697       10.0128932188       14.5627813587
  O        -1.4710147691       11.4299586199        5.7176254134
  O        -3.9249797023       12.8467414096       10.1402069225
  O        -4.1240893011       12.9615734163       14.5627009181
  O        -4.1239562704       10.1277997457        5.7177026889
  O        -1.6699272807       11.5448348314       10.1400961489
  O        -1.6700621098       11.3148954259       14.5627588656
  O        -4.1241159001       12.7317436791        5.7176451169
  O        -4.1241992653        9.8979304855       10.1401951450
  O        -0.9181926853       12.8465779092        3.5064192798
  O         3.9903680210       10.0127782786        7.9289688022
  O         1.5359126379       11.4298326375       12.3516120906
  O         4.1894467002        9.8977926473        3.5065162968
  O         1.7348827531       11.3150577459        7.9290230552
  O        -0.7192403198       12.7317448949       12.3515751233
  O         1.7349855258       11.5449969662        3.5065518833
  O        -0.7188981749       12.9614641661        7.9288926603
  O         4.1892819050       10.1277973451       12.3516691176
  O         0.9834437505       10.0129798721       14.5625138050
  O         3.4381433834       11.4295475308        5.7177643388
  O         0.9834830687       12.8469753843       10.1404833333
  O         0.7842680712       12.9616745462       14.5626246902
  O         0.7841591020       10.1284782855        5.7177373262
  O         3.2384865614       11.5445723245       10.1403348599
  O         3.2384724319       11.3146510837       14.5625653833
  O         0.7841714920       12.7319066008        5.7175655680
  O         0.7842793294        9.8980296097       10.1403980118
  O         3.9900109444       12.8465371355        3.5062655879
  O         8.8983971710       10.0128760364        7.9289635071
  O         6.4443485555       11.4298045056       12.3515436683
  O         9.0974197570        9.8979219112        3.5064963968
  O         6.6430715819       11.3146695726        7.9288288392
  O         4.1893169172       12.7317370755       12.3514026575
  O         6.6432606247       11.5447326083        3.5064542586
  O         4.1893101400       12.9615839464        7.9290596459
  O         9.0974745730       10.1278749069       12.3515449124
  O         5.8917218479       10.0128046431       14.5626435511
  O         8.3457477671       11.4296696920        5.7177300423
  O         5.8918035014       12.8466295614       10.1401317036
  O         5.6927236897       12.9616722839       14.5627155248
  O         5.6927388255       10.1277446637        5.7175171690
  O         8.1465923465       11.5446947565       10.1401357788
  O         8.1465827298       11.3147862590       14.5626720828
  O         5.6928059052       12.7317905444        5.7176586987
  O         5.6927369776        9.8976163328       10.1405398393
