 DBCSR| Multiplication driver                                               BLAS
 DBCSR| Multrec recursion limit                                              512
 DBCSR| Multiplication stack size                                           1000
 DBCSR| Maximum elements for images                                    UNLIMITED
 DBCSR| Multiplicative factor virtual images                                   1
 DBCSR| Multiplication size stacks                                             3
 DBCSR| Number of 3D layers                                               SINGLE
 DBCSR| Use MPI memory allocation                                              T
 DBCSR| Use RMA algorithm                                                      F
 DBCSR| Use Communication thread                                               T
 DBCSR| Communication thread load                                             87


  **** **** ******  **  PROGRAM STARTED AT               2020-02-25 00:40:16.103
 ***** ** ***  *** **   PROGRAM STARTED ON        cpn-v11-08-01.compute.cbls.ccr
 **    ****   ******    PROGRAM STARTED BY                              pavankum
 ***** **    ** ** **   PROGRAM PROCESS ID                                265932
  **** **  *******  **  PROGRAM STARTED IN /projects/academic/mdupuis2/pavan/MOA
                                           /Hematite/neutral_moa

 CP2K| version string:                                          CP2K version 6.1
 CP2K| source code revision number:                                    svn:18464
 CP2K| cp2kflags: libint fftw3 libxc parallel mpi3 scalapack libderiv_max_am1=5 
 CP2K|            libint_max_am=6
 CP2K| is freely available from                            https://www.cp2k.org/
 CP2K| Program compiled at                          Fri Nov 30 14:17:09 EST 2018
 CP2K| Program compiled on                       srv-p22-12.cbls.ccr.buffalo.edu
 CP2K| Program compiled for                                                local
 CP2K| Data directory path    /projects/academic/mdupuis2/pavan/cp2k/cp2k-6.1/da
 CP2K| Input file name                                                 input.inp

 GLOBAL| Force Environment number                                              1
 GLOBAL| Basis set file name            /projects/academic/mdupuis2/pavan/BASIS_
 GLOBAL| Potential file name            /projects/academic/mdupuis2/pavan/POTENT
 GLOBAL| MM Potential file name                                     MM_POTENTIAL
 GLOBAL| Coordinate file name                                    opt_neutral.xyz
 GLOBAL| Method name                                                        CP2K
 GLOBAL| Project name                                                      p_fe_
 GLOBAL| Preferred FFT library                                             FFTW3
 GLOBAL| Preferred diagonalization lib.                                       SL
 GLOBAL| Run type                                                         ENERGY
 GLOBAL| All-to-all communication in single precision                          F
 GLOBAL| FFTs using library dependent lengths                                  T
 GLOBAL| Global print level                                               MEDIUM
 GLOBAL| Total number of message passing processes                           160
 GLOBAL| Number of threads for this process                                    1
 GLOBAL| This output is from process                                           0
 GLOBAL| CPU model name :  Intel(R) Xeon(R) Gold 6230 CPU @ 2.10GHz

 MEMORY| system memory details [Kb]
 MEMORY|                        rank 0           min           max       average
 MEMORY| MemTotal            196289996     196289996     196289996     196289996
 MEMORY| MemFree             189118744     189118744     189488940     189292203
 MEMORY| Buffers                  6228          6228          6228          6228
 MEMORY| Cached                1412924       1043232       1412924       1214021
 MEMORY| Slab                  1108444       1096780       1132056       1109581
 MEMORY| SReclaimable           817280        810520        840104        820190
 MEMORY| MemLikelyFree       191355176     191287620     191368808     191332642


 *** Fundamental physical constants (SI units) ***

 *** Literature: B. J. Mohr and B. N. Taylor,
 ***             CODATA recommended values of the fundamental physical
 ***             constants: 2006, Web Version 5.1
 ***             http://physics.nist.gov/constants

 Speed of light in vacuum [m/s]                             2.99792458000000E+08
 Magnetic constant or permeability of vacuum [N/A**2]       1.25663706143592E-06
 Electric constant or permittivity of vacuum [F/m]          8.85418781762039E-12
 Planck constant (h) [J*s]                                  6.62606896000000E-34
 Planck constant (h-bar) [J*s]                              1.05457162825177E-34
 Elementary charge [C]                                      1.60217648700000E-19
 Electron mass [kg]                                         9.10938215000000E-31
 Electron g factor [ ]                                     -2.00231930436220E+00
 Proton mass [kg]                                           1.67262163700000E-27
 Fine-structure constant                                    7.29735253760000E-03
 Rydberg constant [1/m]                                     1.09737315685270E+07
 Avogadro constant [1/mol]                                  6.02214179000000E+23
 Boltzmann constant [J/K]                                   1.38065040000000E-23
 Atomic mass unit [kg]                                      1.66053878200000E-27
 Bohr radius [m]                                            5.29177208590000E-11

 *** Conversion factors ***

 [u] -> [a.u.]                                              1.82288848426455E+03
 [Angstrom] -> [Bohr] = [a.u.]                              1.88972613288564E+00
 [a.u.] = [Bohr] -> [Angstrom]                              5.29177208590000E-01
 [a.u.] -> [s]                                              2.41888432650478E-17
 [a.u.] -> [fs]                                             2.41888432650478E-02
 [a.u.] -> [J]                                              4.35974393937059E-18
 [a.u.] -> [N]                                              8.23872205491840E-08
 [a.u.] -> [K]                                              3.15774647902944E+05
 [a.u.] -> [kJ/mol]                                         2.62549961709828E+03
 [a.u.] -> [kcal/mol]                                       6.27509468713739E+02
 [a.u.] -> [Pa]                                             2.94210107994716E+13
 [a.u.] -> [bar]                                            2.94210107994716E+08
 [a.u.] -> [atm]                                            2.90362800883016E+08
 [a.u.] -> [eV]                                             2.72113838565563E+01
 [a.u.] -> [Hz]                                             6.57968392072181E+15
 [a.u.] -> [1/cm] (wave numbers)                            2.19474631370540E+05
 [a.u./Bohr**2] -> [1/cm]                                   5.14048714338585E+03
 

 CELL_TOP| Volume [angstrom^3]:                                         2491.262
 CELL_TOP| Vector a [angstrom    14.725     0.000     0.000    |a| =      14.725
 CELL_TOP| Vector b [angstrom    -7.362    12.752     0.000    |b| =      14.725
 CELL_TOP| Vector c [angstrom     0.000     0.000    13.267    |c| =      13.267
 CELL_TOP| Angle (b,c), alpha [degree]:                                   90.000
 CELL_TOP| Angle (a,c), beta  [degree]:                                   90.000
 CELL_TOP| Angle (a,b), gamma [degree]:                                  120.000
 CELL_TOP| Numerically orthorhombic:                                          NO

 CELL| Volume [angstrom^3]:                                             2491.262
 CELL| Vector a [angstrom]:      14.725     0.000     0.000    |a| =      14.725
 CELL| Vector b [angstrom]:      -7.362    12.752     0.000    |b| =      14.725
 CELL| Vector c [angstrom]:       0.000     0.000    13.267    |c| =      13.267
 CELL| Angle (b,c), alpha [degree]:                                       90.000
 CELL| Angle (a,c), beta  [degree]:                                       90.000
 CELL| Angle (a,b), gamma [degree]:                                      120.000
 CELL| Numerically orthorhombic:                                              NO

 CELL_REF| Volume [angstrom^3]:                                         2491.262
 CELL_REF| Vector a [angstrom    14.725     0.000     0.000    |a| =      14.725
 CELL_REF| Vector b [angstrom    -7.362    12.752     0.000    |b| =      14.725
 CELL_REF| Vector c [angstrom     0.000     0.000    13.267    |c| =      13.267
 CELL_REF| Angle (b,c), alpha [degree]:                                   90.000
 CELL_REF| Angle (a,c), beta  [degree]:                                   90.000
 CELL_REF| Angle (a,b), gamma [degree]:                                  120.000
 CELL_REF| Numerically orthorhombic:                                          NO

 *******************************************************************************
 *******************************************************************************
 **                                                                           **
 **     #####                         ##              ##                      **
 **    ##   ##            ##          ##              ##                      **
 **   ##     ##                       ##            ######                    **
 **   ##     ##  ##   ##  ##   #####  ##  ##   ####   ##    #####    #####    **
 **   ##     ##  ##   ##  ##  ##      ## ##   ##      ##   ##   ##  ##   ##   **
 **   ##  ## ##  ##   ##  ##  ##      ####     ###    ##   ######   ######    **
 **    ##  ###   ##   ##  ##  ##      ## ##      ##   ##   ##       ##        **
 **     #######   #####   ##   #####  ##  ##  ####    ##    #####   ##        **
 **           ##                                                    ##        **
 **                                                                           **
 **                                                ... make the atoms dance   **
 **                                                                           **
 **            Copyright (C) by CP2K developers group (2000 - 2018)           **
 **                                                                           **
 *******************************************************************************

 DFT| Spin unrestricted (spin-polarized) Kohn-Sham calculation               UKS
 DFT| Multiplicity                                                             1
 DFT| Number of spin states                                                    2
 DFT| Charge                                                                   0
 DFT| Self-interaction correction (SIC)                                       NO
 DFT| Cutoffs: density                                              1.000000E-10
 DFT|          gradient                                             1.000000E-10
 DFT|          tau                                                  1.000000E-10
 DFT|          cutoff_smoothing_range                               0.000000E+00
 DFT| XC density smoothing                                                  NONE
 DFT| XC derivatives                                                          PW

 DFT+U| Method                                                          MULLIKEN
 DFT+U| Check atomic kind information for details
 FUNCTIONAL| ROUTINE=NEW
 FUNCTIONAL| BECKE88:
 FUNCTIONAL| A. Becke, Phys. Rev. A 38, 3098 (1988) {LSD version}               
 FUNCTIONAL| LYP:
 FUNCTIONAL| C. Lee, W. Yang, R.G. Parr, Phys. Rev. B, 37, 785 (1988) {LSD versi
 FUNCTIONAL| on}                                                                

 QS| Method:                                                                 GPW
 QS| Density plane wave grid type                        NON-SPHERICAL FULLSPACE
 QS| Number of grid levels:                                                   10
 QS| Density cutoff [a.u.]:                                                325.0
 QS| Multi grid cutoff [a.u.]: 1) grid level                               325.0
 QS|                           2) grid level                               108.3
 QS|                           3) grid level                                36.1
 QS|                           4) grid level                                12.0
 QS|                           5) grid level                                 4.0
 QS|                           6) grid level                                 1.3
 QS|                           7) grid level                                 0.4
 QS|                           8) grid level                                 0.1
 QS|                           9) grid level                                 0.0
 QS|                          10) grid level                                 0.0
 QS| Grid level progression factor:                                          3.0
 QS| Relative density cutoff [a.u.]:                                        30.0
 QS| Consistent realspace mapping and integration 
 QS| Interaction thresholds: eps_pgf_orb:                                1.0E-06
 QS|                         eps_filter_matrix:                          0.0E+00
 QS|                         eps_core_charge:                            1.0E-14
 QS|                         eps_rho_gspace:                             1.0E-12
 QS|                         eps_rho_rspace:                             1.0E-12
 QS|                         eps_gvg_rspace:                             1.0E-06
 QS|                         eps_ppl:                                    1.0E-02
 QS|                         eps_ppnl:                                   1.0E-08


 ATOMIC KIND INFORMATION

  1. Atomic kind: Fe                                    Number of atoms:     108

     Orbital Basis Set                                                   mod-DZV

       Number of orbital shell sets:                                           1
       Number of orbital shells:                                               7
       Number of primitive Cartesian functions:                                6
       Number of Cartesian basis functions:                                   21
       Number of spherical basis functions:                                   19
       Norm type:                                                              2

       Normalised Cartesian orbitals:

                        Set   Shell   Orbital            Exponent    Coefficient

                          1       1    2s                8.424366      -0.545589
                                                         4.825220      -0.832336
                                                         2.198939       0.958990
                                                         0.891661       0.416271
                                                         0.316231       0.012631
                                                         0.103474      -0.013505

                          1       2    3s                8.424366      -0.106056
                                                         4.825220      -0.104587
                                                         2.198939       0.052318
                                                         0.891661      -0.169042
                                                         0.316231       0.061854
                                                         0.103474       0.122891

                          1       3    4s                8.424366      -0.333477
                                                         4.825220      -0.289267
                                                         2.198939      -0.125861
                                                         0.891661      -1.004000
                                                         0.316231       0.780774
                                                         0.103474      -0.187846

                          1       4    3px               8.424366      -1.658234
                                                         4.825220       1.618912
                                                         2.198939       1.969078
                                                         0.891661       0.523780
                                                         0.316231       0.024574
                                                         0.103474      -0.000798
                          1       4    3py               8.424366      -1.658234
                                                         4.825220       1.618912
                                                         2.198939       1.969078
                                                         0.891661       0.523780
                                                         0.316231       0.024574
                                                         0.103474      -0.000798
                          1       4    3pz               8.424366      -1.658234
                                                         4.825220       1.618912
                                                         2.198939       1.969078
                                                         0.891661       0.523780
                                                         0.316231       0.024574
                                                         0.103474      -0.000798

                          1       5    4px               8.424366      -0.105249
                                                         4.825220      -0.126123
                                                         2.198939      -0.349657
                                                         0.891661      -0.133470
                                                         0.316231       0.170554
                                                         0.103474       0.054381
                          1       5    4py               8.424366      -0.105249
                                                         4.825220      -0.126123
                                                         2.198939      -0.349657
                                                         0.891661      -0.133470
                                                         0.316231       0.170554
                                                         0.103474       0.054381
                          1       5    4pz               8.424366      -0.105249
                                                         4.825220      -0.126123
                                                         2.198939      -0.349657
                                                         0.891661      -0.133470
                                                         0.316231       0.170554
                                                         0.103474       0.054381

                          1       6    4dx2              8.424366       7.918298
                                                         4.825220       5.112663
                                                         2.198939       2.118663
                                                         0.891661       0.465004
                                                         0.316231       0.065856
                                                         0.103474       0.002769
                          1       6    4dxy              8.424366      13.714895
                                                         4.825220       8.855393
                                                         2.198939       3.669632
                                                         0.891661       0.805411
                                                         0.316231       0.114066
                                                         0.103474       0.004796
                          1       6    4dxz              8.424366      13.714895
                                                         4.825220       8.855393
                                                         2.198939       3.669632
                                                         0.891661       0.805411
                                                         0.316231       0.114066
                                                         0.103474       0.004796
                          1       6    4dy2              8.424366       7.918298
                                                         4.825220       5.112663
                                                         2.198939       2.118663
                                                         0.891661       0.465004
                                                         0.316231       0.065856
                                                         0.103474       0.002769
                          1       6    4dyz              8.424366      13.714895
                                                         4.825220       8.855393
                                                         2.198939       3.669632
                                                         0.891661       0.805411
                                                         0.316231       0.114066
                                                         0.103474       0.004796
                          1       6    4dz2              8.424366       7.918298
                                                         4.825220       5.112663
                                                         2.198939       2.118663
                                                         0.891661       0.465004
                                                         0.316231       0.065856
                                                         0.103474       0.002769

                          1       7    5dx2              8.424366      -4.223614
                                                         4.825220      -1.970584
                                                         2.198939      -1.543490
                                                         0.891661      -0.041381
                                                         0.316231       0.082821
                                                         0.103474       0.021964
                          1       7    5dxy              8.424366      -7.315513
                                                         4.825220      -3.413151
                                                         2.198939      -2.673404
                                                         0.891661      -0.071673
                                                         0.316231       0.143450
                                                         0.103474       0.038042
                          1       7    5dxz              8.424366      -7.315513
                                                         4.825220      -3.413151
                                                         2.198939      -2.673404
                                                         0.891661      -0.071673
                                                         0.316231       0.143450
                                                         0.103474       0.038042
                          1       7    5dy2              8.424366      -4.223614
                                                         4.825220      -1.970584
                                                         2.198939      -1.543490
                                                         0.891661      -0.041381
                                                         0.316231       0.082821
                                                         0.103474       0.021964
                          1       7    5dyz              8.424366      -7.315513
                                                         4.825220      -3.413151
                                                         2.198939      -2.673404
                                                         0.891661      -0.071673
                                                         0.316231       0.143450
                                                         0.103474       0.038042
                          1       7    5dz2              8.424366      -4.223614
                                                         4.825220      -1.970584
                                                         2.198939      -1.543490
                                                         0.891661      -0.041381
                                                         0.316231       0.082821
                                                         0.103474       0.021964

     GTH Potential information for                                  GTH-BLYP-q16

       Description:                       Goedecker-Teter-Hutter pseudopotential
                                           Goedecker et al., PRB 54, 1703 (1996)
                                          Hartwigsen et al., PRB 58, 3641 (1998)
                                                      Krack, TCA 114, 145 (2005)

       Gaussian exponent of the core charge distribution:               3.858025
       Electronic configuration (s p d ...):                           4   6   6

       Parameters of the local part of the GTH pseudopotential:

                          rloc        C1          C2          C3          C4
                        0.360000    7.011025   -0.222747

       Parameters of the non-local part of the GTH pseudopotential:

                   l      r(l)      h(i,j,l)

                   0    0.276205    0.611496    7.992357
                                    7.992357  -10.318089
                   1    0.247130   -8.710556    8.684169
                                    8.684169  -10.275248
                   2    0.223534  -12.411504

     A DFT+U correction is applied to atoms of this atomic kind:
       Angular quantum momentum number L:                                      2
       U(eff) = (U - J) value in [eV]:                                     6.000

  2. Atomic kind: O                                     Number of atoms:     162

     Orbital Basis Set                                                   mod-DZV

       Number of orbital shell sets:                                           1
       Number of orbital shells:                                               4
       Number of primitive Cartesian functions:                                5
       Number of Cartesian basis functions:                                    8
       Number of spherical basis functions:                                    8
       Norm type:                                                              2

       Normalised Cartesian orbitals:

                        Set   Shell   Orbital            Exponent    Coefficient

                          1       1    2s               10.389228       0.396646
                                                         3.849621       0.208811
                                                         1.388401      -0.301641
                                                         0.496955      -0.274061
                                                         0.162492      -0.033677

                          1       2    3s               10.389228       0.303673
                                                         3.849621       0.240943
                                                         1.388401      -0.313066
                                                         0.496955      -0.043055
                                                         0.162492       0.213991

                          1       3    3px              10.389228      -1.530415
                                                         3.849621      -1.371928
                                                         1.388401      -0.761951
                                                         0.496955      -0.253695
                                                         0.162492      -0.035541
                          1       3    3py              10.389228      -1.530415
                                                         3.849621      -1.371928
                                                         1.388401      -0.761951
                                                         0.496955      -0.253695
                                                         0.162492      -0.035541
                          1       3    3pz              10.389228      -1.530415
                                                         3.849621      -1.371928
                                                         1.388401      -0.761951
                                                         0.496955      -0.253695
                                                         0.162492      -0.035541

                          1       4    4px              10.389228      -0.565392
                                                         3.849621      -0.038231
                                                         1.388401      -0.382373
                                                         0.496955       0.179070
                                                         0.162492       0.122714
                          1       4    4py              10.389228      -0.565392
                                                         3.849621      -0.038231
                                                         1.388401      -0.382373
                                                         0.496955       0.179070
                                                         0.162492       0.122714
                          1       4    4pz              10.389228      -0.565392
                                                         3.849621      -0.038231
                                                         1.388401      -0.382373
                                                         0.496955       0.179070
                                                         0.162492       0.122714

     GTH Potential information for                                   GTH-BLYP-q6

       Description:                       Goedecker-Teter-Hutter pseudopotential
                                           Goedecker et al., PRB 54, 1703 (1996)
                                          Hartwigsen et al., PRB 58, 3641 (1998)
                                                      Krack, TCA 114, 145 (2005)

       Gaussian exponent of the core charge distribution:               8.438331
       Electronic configuration (s p d ...):                               2   4

       Parameters of the local part of the GTH pseudopotential:

                          rloc        C1          C2          C3          C4
                        0.243420  -16.991892    2.566142

       Parameters of the non-local part of the GTH pseudopotential:

                   l      r(l)      h(i,j,l)

                   0    0.220831   18.388851
                   1    0.217201


 MOLECULE KIND INFORMATION


 All atoms are their own molecule, skipping detailed information


 TOTAL NUMBERS AND MAXIMUM NUMBERS

  Total number of            - Atomic kinds:                                   2
                             - Atoms:                                        270
                             - Shell sets:                                   270
                             - Shells:                                      1404
                             - Primitive Cartesian functions:               1458
                             - Cartesian basis functions:                   3564
                             - Spherical basis functions:                   3348

  Maximum angular momentum of- Orbital basis functions:                        2
                             - Local part of the GTH pseudopotential:          2
                             - Non-local part of the GTH pseudopotential:      3


 MODULE QUICKSTEP:  ATOMIC COORDINATES IN angstrom

  Atom  Kind  Element       X           Y           Z          Z(eff)       Mass

       1     1 Fe  26    0.032554    2.928404   13.743774     16.00      55.8450
       2     1 Fe  26    2.486439    4.345349    4.898873     16.00      55.8450
       3     1 Fe  26    2.486615    1.511507    9.321265     16.00      55.8450
       4     1 Fe  26    2.486711    4.345078    2.114300     16.00      55.8450
       5     1 Fe  26    2.486641    1.511491    6.536707     16.00      55.8450
       6     1 Fe  26    0.032731    2.928255   10.959168     16.00      55.8450
       7     1 Fe  26    0.032508    2.928317    4.325472     16.00      55.8450
       8     1 Fe  26    2.486503    4.345511    8.747531     16.00      55.8450
       9     1 Fe  26    2.486630    1.511481   13.170324     16.00      55.8450
      10     1 Fe  26    2.486626    1.511501    2.687597     16.00      55.8450
      11     1 Fe  26    0.032494    2.928548    7.109943     16.00      55.8450
      12     1 Fe  26    2.486651    4.345501   11.532303     16.00      55.8450
      13     1 Fe  26    4.940756    2.928329   13.743768     16.00      55.8450
      14     1 Fe  26    7.395053    4.345170    4.899057     16.00      55.8450
      15     1 Fe  26    7.394865    1.511568    9.321505     16.00      55.8450
      16     1 Fe  26    7.395070    4.345121    2.114441     16.00      55.8450
      17     1 Fe  26    7.394742    1.511150    6.537201     16.00      55.8450
      18     1 Fe  26    4.940556    2.928263   10.959167     16.00      55.8450
      19     1 Fe  26    4.940707    2.928405    4.325466     16.00      55.8450
      20     1 Fe  26    7.395108    4.345199    8.747787     16.00      55.8450
      21     1 Fe  26    7.394893    1.511583   13.170420     16.00      55.8450
      22     1 Fe  26    7.394737    1.511282    2.687719     16.00      55.8450
      23     1 Fe  26    4.940883    2.928318    7.109940     16.00      55.8450
      24     1 Fe  26    7.394842    4.345144   11.532522     16.00      55.8450
      25     1 Fe  26    9.849118    2.928597   13.743913     16.00      55.8450
      26     1 Fe  26   12.303233    4.345466    4.899073     16.00      55.8450
      27     1 Fe  26   12.303558    1.511764    9.321286     16.00      55.8450
      28     1 Fe  26   12.303295    4.345514    2.114445     16.00      55.8450
      29     1 Fe  26   12.303525    1.510976    6.536582     16.00      55.8450
      30     1 Fe  26    9.849219    2.928479   10.959267     16.00      55.8450
      31     1 Fe  26    9.849228    2.928162    4.325573     16.00      55.8450
      32     1 Fe  26   12.303183    4.345488    8.747781     16.00      55.8450
      33     1 Fe  26   12.303337    1.511606   13.170431     16.00      55.8450
      34     1 Fe  26   12.303478    1.511783    2.687505     16.00      55.8450
      35     1 Fe  26    9.849315    2.928202    7.110045     16.00      55.8450
      36     1 Fe  26   12.303393    4.345306   11.532512     16.00      55.8450
      37     1 Fe  26   -2.421863    7.179039   13.743922     16.00      55.8450
      38     1 Fe  26    0.032667    8.595263    4.898365     16.00      55.8450
      39     1 Fe  26    0.032454    5.762100    9.321510     16.00      55.8450
      40     1 Fe  26    0.032415    8.596016    2.114075     16.00      55.8450
      41     1 Fe  26    0.032881    5.762227    6.537200     16.00      55.8450
      42     1 Fe  26   -2.421790    7.179174   10.959270     16.00      55.8450
      43     1 Fe  26   -2.421532    7.179338    4.325566     16.00      55.8450
      44     1 Fe  26    0.031744    8.595779    8.748809     16.00      55.8450
      45     1 Fe  26    0.032440    5.762108   13.170412     16.00      55.8450
      46     1 Fe  26    0.032764    5.762162    2.687711     16.00      55.8450
      47     1 Fe  26   -2.421616    7.179425    7.110037     16.00      55.8450
      48     1 Fe  26    0.032474    8.595972   11.533122     16.00      55.8450
      49     1 Fe  26    2.486535    7.178825   13.743884     16.00      55.8450
      50     1 Fe  26    4.941324    8.596527    4.898350     16.00      55.8450
      51     1 Fe  26    4.940841    5.761748    9.321285     16.00      55.8450
      52     1 Fe  26    4.940790    8.595912    2.114076     16.00      55.8450
      53     1 Fe  26    4.940164    5.762151    6.536593     16.00      55.8450
      54     1 Fe  26    2.486603    7.179289   10.959181     16.00      55.8450
      55     1 Fe  26    2.486909    7.178973    4.325197     16.00      55.8450
      56     1 Fe  26    4.941305    8.595447    8.748848     16.00      55.8450
      57     1 Fe  26    4.940827    5.762009   13.170442     16.00      55.8450
      58     1 Fe  26    4.940876    5.761843    2.687502     16.00      55.8450
      59     1 Fe  26    2.487009    7.180158    7.109648     16.00      55.8450
      60     1 Fe  26    4.940811    8.595999   11.533129     16.00      55.8450
      61     1 Fe  26    7.395061    7.178933   13.743911     16.00      55.8450
      62     1 Fe  26    9.848876    8.595917    4.899062     16.00      55.8450
      63     1 Fe  26    9.849056    5.762181    9.321280     16.00      55.8450
      64     1 Fe  26    9.848856    8.595943    2.114443     16.00      55.8450
      65     1 Fe  26    9.849063    5.762196    6.536734     16.00      55.8450
      66     1 Fe  26    7.394937    7.178922   10.959277     16.00      55.8450
      67     1 Fe  26    7.394643    7.179054    4.325571     16.00      55.8450
      68     1 Fe  26    9.848891    8.595863    8.747782     16.00      55.8450
      69     1 Fe  26    9.849070    5.762189   13.170652     16.00      55.8450
      70     1 Fe  26    9.849072    5.762191    2.688043     16.00      55.8450
      71     1 Fe  26    7.394613    7.178965    7.110051     16.00      55.8450
      72     1 Fe  26    9.848975    8.596150   11.532517     16.00      55.8450
      73     1 Fe  26   -4.875855   11.429838   13.743771     16.00      55.8450
      74     1 Fe  26   -2.421531   12.846822    4.898884     16.00      55.8450
      75     1 Fe  26   -2.422087   10.013071    9.321274     16.00      55.8450
      76     1 Fe  26   -2.421863   12.846739    2.114303     16.00      55.8450
      77     1 Fe  26   -2.421356   10.013449    6.536582     16.00      55.8450
      78     1 Fe  26   -4.875782   11.430062   10.959161     16.00      55.8450
      79     1 Fe  26   -4.875750   11.429821    4.325471     16.00      55.8450
      80     1 Fe  26   -2.421400   12.846695    8.747536     16.00      55.8450
      81     1 Fe  26   -2.421823   10.012934   13.170429     16.00      55.8450
      82     1 Fe  26   -2.422027   10.012988    2.687493     16.00      55.8450
      83     1 Fe  26   -4.875932   11.429744    7.109946     16.00      55.8450
      84     1 Fe  26   -2.421498   12.846596   11.532304     16.00      55.8450
      85     1 Fe  26    0.032309   11.430015   13.743888     16.00      55.8450
      86     1 Fe  26    2.485873   12.846896    4.898345     16.00      55.8450
      87     1 Fe  26    2.486620   10.012871    9.320667     16.00      55.8450
      88     1 Fe  26    2.486714   12.846765    2.114057     16.00      55.8450
      89     1 Fe  26    2.486648   10.012894    6.537162     16.00      55.8450
      90     1 Fe  26    0.032672   11.429735   10.959181     16.00      55.8450
      91     1 Fe  26    0.032247   11.429612    4.325187     16.00      55.8450
      92     1 Fe  26    2.486844   12.847410    8.748811     16.00      55.8450
      93     1 Fe  26    2.486639   10.012888   13.170456     16.00      55.8450
      94     1 Fe  26    2.486628   10.012909    2.687505     16.00      55.8450
      95     1 Fe  26    0.033233   11.428962    7.109667     16.00      55.8450
      96     1 Fe  26    2.486604   12.846727   11.533112     16.00      55.8450
      97     1 Fe  26    4.941062   11.429832   13.743885     16.00      55.8450
      98     1 Fe  26    7.394957   12.846501    4.898886     16.00      55.8450
      99     1 Fe  26    7.394996   10.012884    9.321492     16.00      55.8450
     100     1 Fe  26    7.395084   12.846858    2.114288     16.00      55.8450
     101     1 Fe  26    7.394723   10.013192    6.537183     16.00      55.8450
     102     1 Fe  26    4.940613   11.429663   10.959167     16.00      55.8450
     103     1 Fe  26    4.940768   11.430100    4.325185     16.00      55.8450
     104     1 Fe  26    7.394780   12.846449    8.747536     16.00      55.8450
     105     1 Fe  26    7.395019   10.012871   13.170425     16.00      55.8450
     106     1 Fe  26    7.394821   10.013148    2.687715     16.00      55.8450
     107     1 Fe  26    4.939686   11.429575    7.109667     16.00      55.8450
     108     1 Fe  26    7.394739   12.846606   11.532307     16.00      55.8450
     109     2 O    8   -0.918125    4.345259    3.506493      6.00      15.9994
     110     2 O    8    3.990106    1.511441    7.928907      6.00      15.9994
     111     2 O    8    1.535930    2.928353   12.351403      6.00      15.9994
     112     2 O    8    4.189247    1.396602    3.506324      6.00      15.9994
     113     2 O    8    1.735027    2.813393    7.928909      6.00      15.9994
     114     2 O    8   -0.719051    4.230225   12.351520      6.00      15.9994
     115     2 O    8    1.734879    3.043314    3.506359      6.00      15.9994
     116     2 O    8   -0.719100    4.460166    7.929022      6.00      15.9994
     117     2 O    8    4.189203    1.626414   12.351474      6.00      15.9994
     118     2 O    8    0.983397    1.511527   14.562724      6.00      15.9994
     119     2 O    8    3.437479    2.928269    5.717604      6.00      15.9994
     120     2 O    8    0.983437    4.345326   10.140151      6.00      15.9994
     121     2 O    8    0.784320    4.460267   14.562607      6.00      15.9994
     122     2 O    8    0.784353    1.626403    5.717599      6.00      15.9994
     123     2 O    8    3.238377    3.043208   10.140199      6.00      15.9994
     124     2 O    8    3.238433    2.813334   14.562752      6.00      15.9994
     125     2 O    8    0.784193    4.230361    5.717761      6.00      15.9994
     126     2 O    8    0.784336    1.396494   10.140252      6.00      15.9994
     127     2 O    8    3.990123    4.345216    3.506471      6.00      15.9994
     128     2 O    8    8.898416    1.511400    7.929029      6.00      15.9994
     129     2 O    8    6.444169    2.928310   12.351488      6.00      15.9994
     130     2 O    8    9.097465    1.396444    3.506475      6.00      15.9994
     131     2 O    8    6.643267    2.813402    7.928972      6.00      15.9994
     132     2 O    8    4.189159    4.230234   12.351395      6.00      15.9994
     133     2 O    8    6.643303    3.043238    3.506556      6.00      15.9994
     134     2 O    8    4.189203    4.460280    7.928842      6.00      15.9994
     135     2 O    8    9.097551    1.626489   12.351627      6.00      15.9994
     136     2 O    8    5.891694    1.511365   14.562612      6.00      15.9994
     137     2 O    8    8.345915    2.928245    5.717773      6.00      15.9994
     138     2 O    8    5.891688    4.345095   10.140154      6.00      15.9994
     139     2 O    8    5.692560    4.460100   14.562766      6.00      15.9994
     140     2 O    8    5.692622    1.626400    5.717706      6.00      15.9994
     141     2 O    8    8.146770    3.043205   10.140185      6.00      15.9994
     142     2 O    8    8.146714    2.813338   14.562681      6.00      15.9994
     143     2 O    8    5.692475    4.230339    5.717753      6.00      15.9994
     144     2 O    8    5.692558    1.396397   10.140186      6.00      15.9994
     145     2 O    8    8.898365    4.345140    3.506486      6.00      15.9994
     146     2 O    8   13.806585    1.511424    7.928776      6.00      15.9994
     147     2 O    8   11.352562    2.928378   12.351404      6.00      15.9994
     148     2 O    8   14.005765    1.396510    3.506488      6.00      15.9994
     149     2 O    8   11.551636    2.813397    7.929112      6.00      15.9994
     150     2 O    8    9.097525    4.230290   12.351300      6.00      15.9994
     151     2 O    8   11.551679    3.043297    3.506522      6.00      15.9994
     152     2 O    8    9.097610    4.460076    7.928987      6.00      15.9994
     153     2 O    8   14.005797    1.626417   12.351432      6.00      15.9994
     154     2 O    8   10.799878    1.511463   14.562703      6.00      15.9994
     155     2 O    8   13.254068    2.928281    5.717712      6.00      15.9994
     156     2 O    8   10.799976    4.345327   10.140197      6.00      15.9994
     157     2 O    8   10.600913    4.460323   14.562724      6.00      15.9994
     158     2 O    8   10.600737    1.626216    5.717622      6.00      15.9994
     159     2 O    8   13.055100    3.043388   10.140139      6.00      15.9994
     160     2 O    8   13.055035    2.813442   14.562821      6.00      15.9994
     161     2 O    8   10.600968    4.230223    5.717937      6.00      15.9994
     162     2 O    8   10.600877    1.396386   10.140192      6.00      15.9994
     163     2 O    8   -3.372362    8.596014    3.506475      6.00      15.9994
     164     2 O    8    1.535971    5.762411    7.928828      6.00      15.9994
     165     2 O    8   -0.918311    7.179072   12.351581      6.00      15.9994
     166     2 O    8    1.735084    5.647218    3.506432      6.00      15.9994
     167     2 O    8   -0.719098    7.064136    7.929039      6.00      15.9994
     168     2 O    8   -3.173294    8.480990   12.351417      6.00      15.9994
     169     2 O    8   -0.719066    7.294033    3.506528      6.00      15.9994
     170     2 O    8   -3.173299    8.710918    7.929144      6.00      15.9994
     171     2 O    8    1.735049    5.876967   12.351616      6.00      15.9994
     172     2 O    8   -1.470742    5.762204   14.562622      6.00      15.9994
     173     2 O    8    0.983209    7.178900    5.717510      6.00      15.9994
     174     2 O    8   -1.470716    8.596069   10.140154      6.00      15.9994
     175     2 O    8   -1.669843    8.710829   14.562682      6.00      15.9994
     176     2 O    8   -1.669836    5.877251    5.717752      6.00      15.9994
     177     2 O    8    0.783930    7.293943   10.140473      6.00      15.9994
     178     2 O    8    0.784187    7.064050   14.562681      6.00      15.9994
     179     2 O    8   -1.669713    8.481001    5.717670      6.00      15.9994
     180     2 O    8   -1.669853    5.647304   10.140230      6.00      15.9994
     181     2 O    8    1.535727    8.595753    3.506504      6.00      15.9994
     182     2 O    8    6.444226    5.762099    7.929088      6.00      15.9994
     183     2 O    8    3.990080    7.178885   12.351392      6.00      15.9994
     184     2 O    8    6.643270    5.647128    3.506476      6.00      15.9994
     185     2 O    8    4.189073    7.063987    7.929042      6.00      15.9994
     186     2 O    8    1.734969    8.480901   12.351627      6.00      15.9994
     187     2 O    8    4.189130    7.294127    3.506334      6.00      15.9994
     188     2 O    8    1.734893    8.710670    7.929086      6.00      15.9994
     189     2 O    8    6.643326    5.877056   12.351459      6.00      15.9994
     190     2 O    8    3.437496    5.761957   14.562723      6.00      15.9994
     191     2 O    8    5.891529    7.179217    5.717653      6.00      15.9994
     192     2 O    8    3.437371    8.595920   10.140359      6.00      15.9994
     193     2 O    8    3.238246    8.710891   14.562506      6.00      15.9994
     194     2 O    8    3.238349    5.876788    5.717606      6.00      15.9994
     195     2 O    8    5.692431    7.293980   10.140151      6.00      15.9994
     196     2 O    8    5.692570    7.064154   14.562745      6.00      15.9994
     197     2 O    8    3.237877    8.480522    5.717810      6.00      15.9994
     198     2 O    8    3.238291    5.647075   10.140149      6.00      15.9994
     199     2 O    8    6.444202    8.595949    3.506452      6.00      15.9994
     200     2 O    8   11.352560    5.762347    7.928943      6.00      15.9994
     201     2 O    8    8.898363    7.178990   12.351290      6.00      15.9994
     202     2 O    8   11.551700    5.647213    3.506514      6.00      15.9994
     203     2 O    8    9.097263    7.064012    7.928961      6.00      15.9994
     204     2 O    8    6.643350    8.480872   12.351581      6.00      15.9994
     205     2 O    8    9.097380    7.294057    3.506544      6.00      15.9994
     206     2 O    8    6.643246    8.710885    7.929070      6.00      15.9994
     207     2 O    8   11.551580    5.877147   12.351345      6.00      15.9994
     208     2 O    8    8.345883    5.762030   14.562750      6.00      15.9994
     209     2 O    8   10.799924    7.179226    5.717898      6.00      15.9994
     210     2 O    8    8.345668    8.595936   10.140202      6.00      15.9994
     211     2 O    8    8.146633    8.710873   14.562624      6.00      15.9994
     212     2 O    8    8.146543    5.876989    5.717881      6.00      15.9994
     213     2 O    8   10.600757    7.293975   10.140171      6.00      15.9994
     214     2 O    8   10.600662    7.064077   14.562780      6.00      15.9994
     215     2 O    8    8.146501    8.480929    5.717810      6.00      15.9994
     216     2 O    8    8.146723    5.647120   10.140236      6.00      15.9994
     217     2 O    8   -5.826419   12.846499    3.506306      6.00      15.9994
     218     2 O    8   -0.918243   10.012980    7.929016      6.00      15.9994
     219     2 O    8   -3.372371   11.429783   12.351387      6.00      15.9994
     220     2 O    8   -0.718993    9.897872    3.506290      6.00      15.9994
     221     2 O    8   -3.173213   11.314714    7.928792      6.00      15.9994
     222     2 O    8   -5.627391   12.731644   12.351413      6.00      15.9994
     223     2 O    8   -3.173300   11.544692    3.506525      6.00      15.9994
     224     2 O    8   -5.627411   12.961590    7.928970      6.00      15.9994
     225     2 O    8   -0.719228   10.127895   12.351446      6.00      15.9994
     226     2 O    8   -3.925000   10.012893   14.562781      6.00      15.9994
     227     2 O    8   -1.471015   11.429959    5.717625      6.00      15.9994
     228     2 O    8   -3.924980   12.846741   10.140207      6.00      15.9994
     229     2 O    8   -4.124089   12.961573   14.562701      6.00      15.9994
     230     2 O    8   -4.123956   10.127800    5.717703      6.00      15.9994
     231     2 O    8   -1.669927   11.544835   10.140096      6.00      15.9994
     232     2 O    8   -1.670062   11.314895   14.562759      6.00      15.9994
     233     2 O    8   -4.124116   12.731744    5.717645      6.00      15.9994
     234     2 O    8   -4.124199    9.897930   10.140195      6.00      15.9994
     235     2 O    8   -0.918193   12.846578    3.506419      6.00      15.9994
     236     2 O    8    3.990368   10.012778    7.928969      6.00      15.9994
     237     2 O    8    1.535913   11.429833   12.351612      6.00      15.9994
     238     2 O    8    4.189447    9.897793    3.506516      6.00      15.9994
     239     2 O    8    1.734883   11.315058    7.929023      6.00      15.9994
     240     2 O    8   -0.719240   12.731745   12.351575      6.00      15.9994
     241     2 O    8    1.734986   11.544997    3.506552      6.00      15.9994
     242     2 O    8   -0.718898   12.961464    7.928893      6.00      15.9994
     243     2 O    8    4.189282   10.127797   12.351669      6.00      15.9994
     244     2 O    8    0.983444   10.012980   14.562514      6.00      15.9994
     245     2 O    8    3.438143   11.429548    5.717764      6.00      15.9994
     246     2 O    8    0.983483   12.846975   10.140483      6.00      15.9994
     247     2 O    8    0.784268   12.961675   14.562625      6.00      15.9994
     248     2 O    8    0.784159   10.128478    5.717737      6.00      15.9994
     249     2 O    8    3.238487   11.544572   10.140335      6.00      15.9994
     250     2 O    8    3.238472   11.314651   14.562565      6.00      15.9994
     251     2 O    8    0.784171   12.731907    5.717566      6.00      15.9994
     252     2 O    8    0.784279    9.898030   10.140398      6.00      15.9994
     253     2 O    8    3.990011   12.846537    3.506266      6.00      15.9994
     254     2 O    8    8.898397   10.012876    7.928964      6.00      15.9994
     255     2 O    8    6.444349   11.429805   12.351544      6.00      15.9994
     256     2 O    8    9.097420    9.897922    3.506496      6.00      15.9994
     257     2 O    8    6.643072   11.314670    7.928829      6.00      15.9994
     258     2 O    8    4.189317   12.731737   12.351403      6.00      15.9994
     259     2 O    8    6.643261   11.544733    3.506454      6.00      15.9994
     260     2 O    8    4.189310   12.961584    7.929060      6.00      15.9994
     261     2 O    8    9.097475   10.127875   12.351545      6.00      15.9994
     262     2 O    8    5.891722   10.012805   14.562644      6.00      15.9994
     263     2 O    8    8.345748   11.429670    5.717730      6.00      15.9994
     264     2 O    8    5.891804   12.846630   10.140132      6.00      15.9994
     265     2 O    8    5.692724   12.961672   14.562716      6.00      15.9994
     266     2 O    8    5.692739   10.127745    5.717517      6.00      15.9994
     267     2 O    8    8.146592   11.544695   10.140136      6.00      15.9994
     268     2 O    8    8.146583   11.314786   14.562672      6.00      15.9994
     269     2 O    8    5.692806   12.731791    5.717659      6.00      15.9994
     270     2 O    8    5.692737    9.897616   10.140540      6.00      15.9994




 SCF PARAMETERS         Density guess:                                   RESTART
                        --------------------------------------------------------
                        max_scf:                                             100
                        max_scf_history:                                       0
                        max_diis:                                              4
                        --------------------------------------------------------
                        eps_scf:                                        1.00E-06
                        eps_scf_history:                                0.00E+00
                        eps_diis:                                       1.00E-01
                        eps_eigval:                                     1.00E-05
                        --------------------------------------------------------
                        level_shift [a.u.]:                                 0.00
                        --------------------------------------------------------
                        Outer loop SCF in use 
                        No variables optimised in outer loop
                        eps_scf                                         1.00E-06
                        max_scf                                               50
                        No outer loop optimization
                        step_size                                       5.00E-01

 PW_GRID| Information for grid number                                          1
 PW_GRID| Grid distributed over                                   160 processors
 PW_GRID| Real space group dimensions                                   160    1
 PW_GRID| the grid is blocked:                                                NO
 PW_GRID| Cutoff [a.u.]                                                    325.0
 PW_GRID| spherical cutoff:                                                   NO
 PW_GRID|   Bounds   1           -112     112                Points:         225
 PW_GRID|   Bounds   2           -112     112                Points:         225
 PW_GRID|   Bounds   3           -105     104                Points:         210
 PW_GRID| Volume element (a.u.^3)  0.1581E-02     Volume (a.u.^3)     16811.8665
 PW_GRID| Grid span                                                    FULLSPACE
 PW_GRID|   Distribution                         Average         Max         Min
 PW_GRID|   G-Vectors                            66445.3       66600       66375
 PW_GRID|   G-Rays                                 295.3         296         295
 PW_GRID|   Real Space Points                    66445.3       94500       47250

 PW_GRID| Information for grid number                                          2
 PW_GRID| Grid distributed over                                   160 processors
 PW_GRID| Real space group dimensions                                    10   16
 PW_GRID| the grid is blocked:                                                NO
 PW_GRID| Cutoff [a.u.]                                                    108.3
 PW_GRID| spherical cutoff:                                                   NO
 PW_GRID|   Bounds   1            -66      65                Points:         132
 PW_GRID|   Bounds   2            -66      65                Points:         132
 PW_GRID|   Bounds   3            -60      59                Points:         120
 PW_GRID| Volume element (a.u.^3)  0.8041E-02     Volume (a.u.^3)     16811.8665
 PW_GRID| Grid span                                                    FULLSPACE
 PW_GRID|   Distribution                         Average         Max         Min
 PW_GRID|   G-Vectors                            13068.0       13464       12804
 PW_GRID|   G-Rays                                  99.0         102          97
 PW_GRID|   Real Space Points                    13068.0       15120       12480

 PW_GRID| Information for grid number                                          3
 PW_GRID| Grid distributed over                                   160 processors
 PW_GRID| Real space group dimensions                                    10   16
 PW_GRID| the grid is blocked:                                                NO
 PW_GRID| Cutoff [a.u.]                                                     36.1
 PW_GRID| spherical cutoff:                                                   NO
 PW_GRID|   Bounds   1            -37      37                Points:          75
 PW_GRID|   Bounds   2            -37      37                Points:          75
 PW_GRID|   Bounds   3            -35      34                Points:          70
 PW_GRID| Volume element (a.u.^3)  0.4270E-01     Volume (a.u.^3)     16811.8665
 PW_GRID| Grid span                                                    FULLSPACE
 PW_GRID|   Distribution                         Average         Max         Min
 PW_GRID|   G-Vectors                             2460.9        2775        2250
 PW_GRID|   G-Rays                                  32.8          37          30
 PW_GRID|   Real Space Points                     2460.9        2800        1960

 PW_GRID| Information for grid number                                          4
 PW_GRID| Grid distributed over                                   160 processors
 PW_GRID| Real space group dimensions                                    10   16
 PW_GRID| the grid is blocked:                                                NO
 PW_GRID| Cutoff [a.u.]                                                     12.0
 PW_GRID| spherical cutoff:                                                   NO
 PW_GRID|   Bounds   1            -22      21                Points:          44
 PW_GRID|   Bounds   2            -22      21                Points:          44
 PW_GRID|   Bounds   3            -20      19                Points:          40
 PW_GRID| Volume element (a.u.^3)  0.2171         Volume (a.u.^3)     16811.8665
 PW_GRID| Grid span                                                    FULLSPACE
 PW_GRID|   Distribution                         Average         Max         Min
 PW_GRID|   G-Vectors                              484.0         572         396
 PW_GRID|   G-Rays                                  11.0          13           9
 PW_GRID|   Real Space Points                      484.0         600         320

 PW_GRID| Information for grid number                                          5
 PW_GRID| Grid distributed over                                   160 processors
 PW_GRID| Real space group dimensions                                    10   16
 PW_GRID| the grid is blocked:                                                NO
 PW_GRID| Cutoff [a.u.]                                                      4.0
 PW_GRID| spherical cutoff:                                                   NO
 PW_GRID|   Bounds   1            -12      12                Points:          25
 PW_GRID|   Bounds   2            -12      12                Points:          25
 PW_GRID|   Bounds   3            -12      11                Points:          24
 PW_GRID| Volume element (a.u.^3)   1.121         Volume (a.u.^3)     16811.8665
 PW_GRID| Grid span                                                    FULLSPACE
 PW_GRID|   Distribution                         Average         Max         Min
 PW_GRID|   G-Vectors                               93.8         125          75
 PW_GRID|   G-Rays                                   3.8           5           3
 PW_GRID|   Real Space Points                       93.8         144          48

 PW_GRID| Information for grid number                                          6
 PW_GRID| Grid distributed over                                   160 processors
 PW_GRID| Real space group dimensions                                    10   16
 PW_GRID| the grid is blocked:                                                NO
 PW_GRID| Cutoff [a.u.]                                                      1.3
 PW_GRID| spherical cutoff:                                                   NO
 PW_GRID|   Bounds   1             -7       7                Points:          15
 PW_GRID|   Bounds   2             -7       7                Points:          15
 PW_GRID|   Bounds   3             -7       6                Points:          14
 PW_GRID| Volume element (a.u.^3)   5.337         Volume (a.u.^3)     16811.8665
 PW_GRID| Grid span                                                    FULLSPACE
 PW_GRID|   Distribution                         Average         Max         Min
 PW_GRID|   G-Vectors                               19.7          30          15
 PW_GRID|   G-Rays                                   1.3           2           1
 PW_GRID|   Real Space Points                       19.7          28           0

 PW_GRID| Information for grid number                                          7
 PW_GRID| Grid distributed over                                   160 processors
 PW_GRID| Real space group dimensions                                    10   16
 PW_GRID| the grid is blocked:                                                NO
 PW_GRID| Cutoff [a.u.]                                                      0.4
 PW_GRID| spherical cutoff:                                                   NO
 PW_GRID|   Bounds   1             -4       4                Points:           9
 PW_GRID|   Bounds   2             -4       4                Points:           9
 PW_GRID|   Bounds   3             -3       3                Points:           7
 PW_GRID| Volume element (a.u.^3)   29.65         Volume (a.u.^3)     16811.8665
 PW_GRID| Grid span                                                    FULLSPACE
 PW_GRID|   Distribution                         Average         Max         Min
 PW_GRID|   G-Vectors                                3.5           9           0
 PW_GRID|   G-Rays                                   0.4           1           0
 PW_GRID|   Real Space Points                        3.5           7           0

 PW_GRID| Information for grid number                                          8
 PW_GRID| Grid distributed over                                   160 processors
 PW_GRID| Real space group dimensions                                    10   16
 PW_GRID| the grid is blocked:                                                NO
 PW_GRID| Cutoff [a.u.]                                                      0.1
 PW_GRID| spherical cutoff:                                                   NO
 PW_GRID|   Bounds   1             -2       2                Points:           5
 PW_GRID|   Bounds   2             -2       2                Points:           5
 PW_GRID|   Bounds   3             -2       2                Points:           5
 PW_GRID| Volume element (a.u.^3)   134.5         Volume (a.u.^3)     16811.8665
 PW_GRID| Grid span                                                    FULLSPACE
 PW_GRID|   Distribution                         Average         Max         Min
 PW_GRID|   G-Vectors                                0.8           5           0
 PW_GRID|   G-Rays                                   0.2           1           0
 PW_GRID|   Real Space Points                        0.8           5           0

 PW_GRID| Information for grid number                                          9
 PW_GRID| Grid distributed over                                   160 processors
 PW_GRID| Real space group dimensions                                    10   16
 PW_GRID| the grid is blocked:                                                NO
 PW_GRID| Cutoff [a.u.]                                                      0.0
 PW_GRID| spherical cutoff:                                                   NO
 PW_GRID|   Bounds   1             -1       1                Points:           3
 PW_GRID|   Bounds   2             -1       1                Points:           3
 PW_GRID|   Bounds   3             -1       1                Points:           3
 PW_GRID| Volume element (a.u.^3)   622.7         Volume (a.u.^3)     16811.8665
 PW_GRID| Grid span                                                    FULLSPACE
 PW_GRID|   Distribution                         Average         Max         Min
 PW_GRID|   G-Vectors                                0.2           3           0
 PW_GRID|   G-Rays                                   0.1           1           0
 PW_GRID|   Real Space Points                        0.2           3           0

 PW_GRID| Information for grid number                                         10
 PW_GRID| Grid distributed over                                   160 processors
 PW_GRID| Real space group dimensions                                    10   16
 PW_GRID| the grid is blocked:                                                NO
 PW_GRID| Cutoff [a.u.]                                                      0.0
 PW_GRID| spherical cutoff:                                                   NO
 PW_GRID|   Bounds   1              0       0                Points:           1
 PW_GRID|   Bounds   2              0       0                Points:           1
 PW_GRID|   Bounds   3              0       0                Points:           1
 PW_GRID| Volume element (a.u.^3)  0.1681E+05     Volume (a.u.^3)     16811.8665
 PW_GRID| Grid span                                                    FULLSPACE
 PW_GRID|   Distribution                         Average         Max         Min
 PW_GRID|   G-Vectors                                0.0           1           0
 PW_GRID|   G-Rays                                   0.0           1           0
 PW_GRID|   Real Space Points                        0.0           1           0

 POISSON| Solver                                                        PERIODIC
 POISSON| Periodicity                                                        XYZ

 RS_GRID| Information for grid number                                          1
 RS_GRID|   Bounds   1           -112     112                Points:         225
 RS_GRID|   Bounds   2           -112     112                Points:         225
 RS_GRID|   Bounds   3           -105     104                Points:         210
 RS_GRID| Real space distribution over                                  5 groups
 RS_GRID| Real space distribution along direction                              1
 RS_GRID| Border size                                                         39
 RS_GRID| Real space distribution over                                  8 groups
 RS_GRID| Real space distribution along direction                              2
 RS_GRID| Border size                                                         39
 RS_GRID| Real space distribution over                                  4 groups
 RS_GRID| Real space distribution along direction                              3
 RS_GRID| Border size                                                         39
 RS_GRID|   Distribution                         Average         Max         Min
 RS_GRID|   Planes                                 123.0         123         123
 RS_GRID|   Distribution                         Average         Max         Min
 RS_GRID|   Planes                                 106.1         107         106
 RS_GRID|   Distribution                         Average         Max         Min
 RS_GRID|   Planes                                 130.5         131         130

 RS_GRID| Information for grid number                                          2
 RS_GRID|   Bounds   1            -66      65                Points:         132
 RS_GRID|   Bounds   2            -66      65                Points:         132
 RS_GRID|   Bounds   3            -60      59                Points:         120
 RS_GRID| Real space fully replicated
 RS_GRID| Group size                                                           1

 RS_GRID| Information for grid number                                          3
 RS_GRID|   Bounds   1            -37      37                Points:          75
 RS_GRID|   Bounds   2            -37      37                Points:          75
 RS_GRID|   Bounds   3            -35      34                Points:          70
 RS_GRID| Real space fully replicated
 RS_GRID| Group size                                                           1

 RS_GRID| Information for grid number                                          4
 RS_GRID|   Bounds   1            -22      21                Points:          44
 RS_GRID|   Bounds   2            -22      21                Points:          44
 RS_GRID|   Bounds   3            -20      19                Points:          40
 RS_GRID| Real space fully replicated
 RS_GRID| Group size                                                           1

 RS_GRID| Information for grid number                                          5
 RS_GRID|   Bounds   1            -12      12                Points:          25
 RS_GRID|   Bounds   2            -12      12                Points:          25
 RS_GRID|   Bounds   3            -12      11                Points:          24
 RS_GRID| Real space fully replicated
 RS_GRID| Group size                                                           1

 RS_GRID| Information for grid number                                          6
 RS_GRID|   Bounds   1             -7       7                Points:          15
 RS_GRID|   Bounds   2             -7       7                Points:          15
 RS_GRID|   Bounds   3             -7       6                Points:          14
 RS_GRID| Real space fully replicated
 RS_GRID| Group size                                                           1

 RS_GRID| Information for grid number                                          7
 RS_GRID|   Bounds   1             -4       4                Points:           9
 RS_GRID|   Bounds   2             -4       4                Points:           9
 RS_GRID|   Bounds   3             -3       3                Points:           7
 RS_GRID| Real space fully replicated
 RS_GRID| Group size                                                           1

 RS_GRID| Information for grid number                                          8
 RS_GRID|   Bounds   1             -2       2                Points:           5
 RS_GRID|   Bounds   2             -2       2                Points:           5
 RS_GRID|   Bounds   3             -2       2                Points:           5
 RS_GRID| Real space fully replicated
 RS_GRID| Group size                                                           1

 RS_GRID| Information for grid number                                          9
 RS_GRID|   Bounds   1             -1       1                Points:           3
 RS_GRID|   Bounds   2             -1       1                Points:           3
 RS_GRID|   Bounds   3             -1       1                Points:           3
 RS_GRID| Real space fully replicated
 RS_GRID| Group size                                                           1

 RS_GRID| Information for grid number                                         10
 RS_GRID|   Bounds   1              0       0                Points:           1
 RS_GRID|   Bounds   2              0       0                Points:           1
 RS_GRID|   Bounds   3              0       0                Points:           1
 RS_GRID| Real space fully replicated
 RS_GRID| Group size                                                           1

 Spin 1

 Number of electrons:                                                       1350
 Number of occupied orbitals:                                               1350
 Number of molecular orbitals:                                              1350

 Spin 2

 Number of electrons:                                                       1350
 Number of occupied orbitals:                                               1350
 Number of molecular orbitals:                                              1350

 Number of orbital functions:                                               3348
 Number of independent orbital functions:                                   3348

 Extrapolation method: initial_guess


 SCF WAVEFUNCTION OPTIMIZATION

  ----------------------------------- OT ---------------------------------------
  Minimizer      : CG                  : conjugate gradient
  Preconditioner : FULL_KINETIC        : inversion of T + eS
  Precond_solver : DEFAULT
  Line search    : 2PNT                : 2 energies, one gradient
  stepsize       :    0.15000000                  energy_gap     :    0.20000000
  eps_taylor     :   0.10000E-15                  max_taylor     :             4
  ----------------------------------- OT ---------------------------------------

  Step     Update method      Time    Convergence         Total energy    Change
  ------------------------------------------------------------------------------

 *** WARNING in dft_plus_u.F:1457 :: DFT+U energy contibution is negative ***
 *** possibly due to unphysical Mulliken charges. Check your input, if    ***
 *** this warning persists or try a different method!                     ***

     1 OT CG       0.15E+00    6.0     0.00000049    -15928.4936488926 -1.59E+04

  *** SCF run converged in     1 steps ***


  Electronic density on regular grids:      -2699.9999999574        0.0000000426
  Core density on regular grids:             2699.9999999993       -0.0000000007
  Total charge density on r-space grids:        0.0000000419
  Total charge density g-space grids:           0.0000000419

  Overlap energy of the core charge distribution:               0.00000000000163
  Self energy of the core charge distribution:             -28423.46627227471618
  Core Hamiltonian energy:                                   7991.42551851744975
  Hartree energy:                                            6510.58438392961671
  Exchange-correlation energy:                              -2005.99597859459845

  DFT+U energy:                                                -1.04130047039012

  Total energy:                                            -15928.49364889263779

  outer SCF iter =    1 RMS gradient =   0.49E-06 energy =     -15928.4936488926
  outer SCF loop converged in   1 iterations or    1 steps


  Integrated absolute spin density  :                             466.4519027920
  Ideal and single determinant S**2 :                    0.000000     259.287952

 !-----------------------------------------------------------------------------!
                     Mulliken Population Analysis

 #  Atom  Element  Kind  Atomic population (alpha,beta) Net charge  Spin moment
       1     Fe       1         9.664602     5.305074     1.030325     4.359528
       2     Fe       1         9.664553     5.305082     1.030365     4.359471
       3     Fe       1         9.664588     5.305010     1.030403     4.359578
       4     Fe       1         5.305075     9.664630     1.030295    -4.359556
       5     Fe       1         5.305116     9.664630     1.030254    -4.359513
       6     Fe       1         5.305082     9.664595     1.030322    -4.359513
       7     Fe       1         9.664626     5.305062     1.030312     4.359564
       8     Fe       1         9.664536     5.305038     1.030426     4.359498
       9     Fe       1         9.664556     5.305009     1.030434     4.359547
      10     Fe       1         5.305087     9.664608     1.030305    -4.359521
      11     Fe       1         5.305026     9.664621     1.030352    -4.359595
      12     Fe       1         5.305056     9.664631     1.030313    -4.359576
      13     Fe       1         9.664604     5.305073     1.030323     4.359531
      14     Fe       1         9.664570     5.305059     1.030371     4.359510
      15     Fe       1         9.664596     5.305101     1.030303     4.359495
      16     Fe       1         5.305051     9.664640     1.030309    -4.359589
      17     Fe       1         5.305032     9.664693     1.030275    -4.359662
      18     Fe       1         5.305081     9.664593     1.030327    -4.359512
      19     Fe       1         9.664626     5.305063     1.030311     4.359564
      20     Fe       1         9.664579     5.305070     1.030351     4.359509
      21     Fe       1         9.664617     5.305060     1.030322     4.359557
      22     Fe       1         5.305015     9.664539     1.030446    -4.359525
      23     Fe       1         5.305029     9.664622     1.030350    -4.359593
      24     Fe       1         5.305029     9.664596     1.030374    -4.359567
      25     Fe       1         9.664567     5.305061     1.030372     4.359506
      26     Fe       1         9.664569     5.305060     1.030370     4.359509
      27     Fe       1         9.664627     5.305017     1.030356     4.359609
      28     Fe       1         5.305049     9.664639     1.030312    -4.359590
      29     Fe       1         5.305032     9.664573     1.030394    -4.359541
      30     Fe       1         5.305041     9.664607     1.030353    -4.359566
      31     Fe       1         9.664630     5.305002     1.030369     4.359628
      32     Fe       1         9.664579     5.305070     1.030351     4.359509
      33     Fe       1         9.664586     5.305068     1.030346     4.359518
      34     Fe       1         5.305059     9.664625     1.030315    -4.359566
      35     Fe       1         5.305048     9.664654     1.030299    -4.359606
      36     Fe       1         5.305026     9.664596     1.030378    -4.359570
      37     Fe       1         9.664568     5.305064     1.030368     4.359504
      38     Fe       1         9.664666     5.304969     1.030365     4.359697
      39     Fe       1         9.664596     5.305104     1.030300     4.359492
      40     Fe       1         5.305037     9.664602     1.030361    -4.359566
      41     Fe       1         5.305032     9.664693     1.030275    -4.359661
      42     Fe       1         5.305044     9.664606     1.030350    -4.359563
[...]
 flops   415 x    70 x    89            310254000     100.0%      0.0%      0.0%
 flops   421 x    70 x    89            314739600     100.0%      0.0%      0.0%
 flops   423 x    70 x    89            316234800     100.0%      0.0%      0.0%
 flops   425 x    70 x    89            317730000     100.0%      0.0%      0.0%
 flops   431 x    70 x    89            322215600     100.0%      0.0%      0.0%
 flops   166 x    96 x    81            340775424     100.0%      0.0%      0.0%
 flops   413 x    96 x    78            346364928     100.0%      0.0%      0.0%
 flops   415 x    96 x    78            348042240     100.0%      0.0%      0.0%
 flops   192 x    96 x    32            349175808     100.0%      0.0%      0.0%
 flops    19 x    32 x    32            353009664     100.0%      0.0%      0.0%
 flops   421 x    96 x    78            353074176     100.0%      0.0%      0.0%
 flops   423 x    96 x    78            354751488     100.0%      0.0%      0.0%
 flops   425 x    96 x    78            356428800     100.0%      0.0%      0.0%
 flops   431 x    96 x    78            361460736     100.0%      0.0%      0.0%
 flops   160 x    70 x    78            366912000     100.0%      0.0%      0.0%
 flops    19 x     8 x    38            404227584     100.0%      0.0%      0.0%
 flops     8 x    19 x    38            404227584     100.0%      0.0%      0.0%
 flops   410 x    64 x    38            406824960     100.0%      0.0%      0.0%
 flops   410 x    70 x    81            409147200     100.0%      0.0%      0.0%
 flops   413 x    70 x    32            410753280     100.0%      0.0%      0.0%
 flops   415 x    70 x    32            412742400     100.0%      0.0%      0.0%
 flops   421 x    70 x    32            418709760     100.0%      0.0%      0.0%
 flops   423 x    70 x    32            420698880     100.0%      0.0%      0.0%
 flops   425 x    70 x    32            422688000     100.0%      0.0%      0.0%
 flops   431 x    70 x    32            428655360     100.0%      0.0%      0.0%
 flops   192 x    70 x    89            430617600     100.0%      0.0%      0.0%
 flops   160 x    64 x    64            445644800     100.0%      0.0%      0.0%
 flops    19 x     6 x    19            454756032     100.0%      0.0%      0.0%
 flops   192 x    96 x    78            483065856     100.0%      0.0%      0.0%
 flops   166 x    96 x    89            510589440     100.0%      0.0%      0.0%
 flops   413 x    96 x    81            565221888     100.0%      0.0%      0.0%
 flops   415 x    96 x    81            567959040     100.0%      0.0%      0.0%
 flops   421 x    96 x    81            576170496     100.0%      0.0%      0.0%
 flops   423 x    96 x    81            578907648     100.0%      0.0%      0.0%
 flops   425 x    96 x    81            581644800     100.0%      0.0%      0.0%
 flops   431 x    96 x    81            589856256     100.0%      0.0%      0.0%
 flops   160 x    70 x    81            598752000     100.0%      0.0%      0.0%
 flops   410 x    70 x    89            613032000     100.0%      0.0%      0.0%
 flops    19 x    19 x    38            645953184     100.0%      0.0%      0.0%
 flops   410 x    96 x    78            687697920     100.0%      0.0%      0.0%
 flops   413 x    64 x    64            690192384     100.0%      0.0%      0.0%
 flops   415 x    64 x    64            693534720     100.0%      0.0%      0.0%
 flops   421 x    64 x    64            703561728     100.0%      0.0%      0.0%
 flops   423 x    64 x    64            706904064     100.0%      0.0%      0.0%
 flops   425 x    64 x    64            710246400     100.0%      0.0%      0.0%
 flops   431 x    64 x    64            720273408     100.0%      0.0%      0.0%
 flops   160 x    96 x    32            727449600     100.0%      0.0%      0.0%
 flops   192 x    96 x    81            788299776     100.0%      0.0%      0.0%
 flops   410 x    70 x    32            815539200     100.0%      0.0%      0.0%
 flops   413 x    96 x    89            846881280     100.0%      0.0%      0.0%
 flops   415 x    96 x    89            850982400     100.0%      0.0%      0.0%
 flops   166 x    64 x    32            855359488     100.0%      0.0%      0.0%
 flops   421 x    96 x    89            863285760     100.0%      0.0%      0.0%
 flops     8 x     8 x    64            865271808     100.0%      0.0%      0.0%
 flops   423 x    96 x    89            867386880     100.0%      0.0%      0.0%
 flops   425 x    96 x    89            871488000     100.0%      0.0%      0.0%
 flops   431 x    96 x    89            883791360     100.0%      0.0%      0.0%
 flops   160 x    70 x    89            897120000     100.0%      0.0%      0.0%
 flops   160 x    96 x    78           1006387200     100.0%      0.0%      0.0%
 flops   410 x    96 x    81           1122232320     100.0%      0.0%      0.0%
 flops   413 x    96 x    32           1126637568     100.0%      0.0%      0.0%
 flops   415 x    96 x    32           1132093440     100.0%      0.0%      0.0%
 flops   421 x    96 x    32           1148461056     100.0%      0.0%      0.0%
 flops   423 x    96 x    32           1153916928     100.0%      0.0%      0.0%
 flops   425 x    96 x    32           1159372800     100.0%      0.0%      0.0%
 flops   431 x    96 x    32           1175740416     100.0%      0.0%      0.0%
 flops   192 x    96 x    89           1181122560     100.0%      0.0%      0.0%
 flops   166 x    64 x    78           1183343616     100.0%      0.0%      0.0%
 flops    19 x     8 x    64           1361608704     100.0%      0.0%      0.0%
 flops     8 x    19 x    64           1361608704     100.0%      0.0%      0.0%
 flops   410 x    64 x    64           1370357760     100.0%      0.0%      0.0%
 flops   160 x    96 x    81           1642291200     100.0%      0.0%      0.0%
 flops   410 x    96 x    89           1681459200     100.0%      0.0%      0.0%
 flops   166 x    64 x    81           1931060736     100.0%      0.0%      0.0%
 flops   413 x    64 x    78           1962734592     100.0%      0.0%      0.0%
 flops   415 x    64 x    78           1972239360     100.0%      0.0%      0.0%
 flops   192 x    64 x    32           1978662912     100.0%      0.0%      0.0%
 flops   421 x    64 x    78           2000753664     100.0%      0.0%      0.0%
 flops   423 x    64 x    78           2010258432     100.0%      0.0%      0.0%
 flops   425 x    64 x    78           2019763200     100.0%      0.0%      0.0%
 flops   431 x    64 x    78           2048277504     100.0%      0.0%      0.0%
 flops    19 x    19 x    64           2175842304     100.0%      0.0%      0.0%
 flops   410 x    96 x    32           2236907520     100.0%      0.0%      0.0%
 flops   160 x    96 x    89           2460672000     100.0%      0.0%      0.0%
 flops   192 x    64 x    78           2737373184     100.0%      0.0%      0.0%
 flops   166 x    64 x    89           2893340160     100.0%      0.0%      0.0%
 flops   413 x    64 x    81           3202924032     100.0%      0.0%      0.0%
 flops   415 x    64 x    81           3218434560     100.0%      0.0%      0.0%
 flops   421 x    64 x    81           3264966144     100.0%      0.0%      0.0%
 flops   423 x    64 x    81           3280476672     100.0%      0.0%      0.0%
 flops   425 x    64 x    81           3295987200     100.0%      0.0%      0.0%
 flops   431 x    64 x    81           3342518784     100.0%      0.0%      0.0%
 flops   410 x    64 x    78           3896954880     100.0%      0.0%      0.0%
 flops   160 x    64 x    32           4122214400     100.0%      0.0%      0.0%
 flops   192 x    64 x    81           4467032064     100.0%      0.0%      0.0%
 flops   413 x    64 x    89           4798993920     100.0%      0.0%      0.0%
 flops   415 x    64 x    89           4822233600     100.0%      0.0%      0.0%
 flops   421 x    64 x    89           4891952640     100.0%      0.0%      0.0%
 flops   423 x    64 x    89           4915192320     100.0%      0.0%      0.0%
 flops   425 x    64 x    89           4938432000     100.0%      0.0%      0.0%
 flops   431 x    64 x    89           5008151040     100.0%      0.0%      0.0%
 flops   160 x    64 x    78           5702860800     100.0%      0.0%      0.0%
 flops   410 x    64 x    81           6359316480     100.0%      0.0%      0.0%
 flops   413 x    64 x    32           6384279552     100.0%      0.0%      0.0%
 flops   415 x    64 x    32           6415196160     100.0%      0.0%      0.0%
 flops   421 x    64 x    32           6507945984     100.0%      0.0%      0.0%
 flops   423 x    64 x    32           6538862592     100.0%      0.0%      0.0%
 flops   425 x    64 x    32           6569779200     100.0%      0.0%      0.0%
 flops   431 x    64 x    32           6662529024     100.0%      0.0%      0.0%
 flops   192 x    64 x    89           6693027840     100.0%      0.0%      0.0%
 flops     8 x     8 x    32           8003764224     100.0%      0.0%      0.0%
 flops   160 x    64 x    81           9306316800     100.0%      0.0%      0.0%
 flops   410 x    64 x    89           9528268800     100.0%      0.0%      0.0%
 flops    19 x     8 x    32          12594880512     100.0%      0.0%      0.0%
 flops     8 x    19 x    32          12594880512     100.0%      0.0%      0.0%
 flops   410 x    64 x    32          12675809280     100.0%      0.0%      0.0%
 flops   160 x    64 x    89          13943808000     100.0%      0.0%      0.0%
 flops    19 x    19 x    32          20126541312     100.0%      0.0%      0.0%
 flops     8 x    32 x     8          40633270272     100.0%      0.0%      0.0%
 flops    19 x    32 x     8          64336011264     100.0%      0.0%      0.0%
 flops     8 x    32 x    19          64336011264     100.0%      0.0%      0.0%
 flops    19 x    32 x    19         101865351168     100.0%      0.0%      0.0%
 flops inhomo. stacks                 39401283600     100.0%      0.0%      0.0%
 flops total                       617.071625E+09     100.0%      0.0%      0.0%
 flops max/rank                      5.452860E+09     100.0%      0.0%      0.0%
 matmuls inhomo. stacks                     11200     100.0%      0.0%      0.0%
 matmuls total                           34204320     100.0%      0.0%      0.0%
 number of processed stacks                460832     100.0%      0.0%      0.0%
 average stack size                                    74.2       0.0       0.0
 marketing flops                   719.594717E+09
 -------------------------------------------------------------------------------
 # multiplications                             35
 max memory usage/rank             199.102464E+06
 # max total images/rank                        5
 # max 3D layers                                1
 # MPI messages exchanged                  744800
 MPI messages size (bytes):
  total size                        53.099872E+09
  min size                           0.000000E+00
  max size                         334.456000E+03
  average size                      71.294133E+03
 MPI breakdown and total messages size (bytes):
             size <=      128               71440                        0
       128 < size <=     8192                1406                 11517952
      8192 < size <=    32768              120802               2176947648
     32768 < size <=   131072              464132              27384845312
    131072 < size <=  4194304               87020              23526557568
   4194304 < size <= 16777216                   0                        0
  16777216 < size                               0                        0
 -------------------------------------------------------------------------------

 *** WARNING in dbcsr/mm/dbcsr_mm.F:268 :: Using a non-square number of ***
 *** MPI ranks might lead to poor performance.                          ***
 *** Used ranks: 160                                                    ***
 *** Suggested: 169 324                                                 ***

 -------------------------------------------------------------------------------

 MEMORY| Estimated peak process memory [MiB]                                 797

 -------------------------------------------------------------------------------
 ----                             MULTIGRID INFO                            ----
 -------------------------------------------------------------------------------
 count for grid        1:       13647014          cutoff [a.u.]          325.00
 count for grid        2:        6477666          cutoff [a.u.]          108.33
 count for grid        3:        5897040          cutoff [a.u.]           36.11
 count for grid        4:        5222616          cutoff [a.u.]           12.04
 count for grid        5:        1981120          cutoff [a.u.]            4.01
 count for grid        6:              0          cutoff [a.u.]            1.34
 count for grid        7:              0          cutoff [a.u.]            0.45
 count for grid        8:              0          cutoff [a.u.]            0.15
 count for grid        9:              0          cutoff [a.u.]            0.05
 count for grid       10:              0          cutoff [a.u.]            0.02
 total gridlevel count  :       33225456

 -------------------------------------------------------------------------------
 -                                                                             -
 -                         MESSAGE PASSING PERFORMANCE                         -
 -                                                                             -
 -------------------------------------------------------------------------------

 ROUTINE             CALLS      AVE VOLUME [Bytes]
 MP_Group               29
 MP_Bcast             2972                 101718.
 MP_Allreduce         2710                 631002.
 MP_Sync           1457116
 MP_Alltoall          2132                1742596.
 MP_ISendRecv       171720                  16629.
 MP_Wait            184900
 MP_ISend            21986                  94481.
 MP_IRecv            21296                  96572.
 MP_Recv           1442868                   1730.
 MP_Memory            4320
 -------------------------------------------------------------------------------


 -------------------------------------------------------------------------------
 -                                                                             -
 -                           R E F E R E N C E S                               -
 -                                                                             -
 -------------------------------------------------------------------------------
 
 CP2K version 6.1, the CP2K developers group (2018).
 CP2K is freely available from https://www.cp2k.org/ .

 Schuett, Ole; Messmer, Peter; Hutter, Juerg; VandeVondele, Joost. 
 Electronic Structure Calculations on Graphics Processing Units, John Wiley & Sons, Ltd, 173-190 (2016). 
 GPU-Accelerated Sparse Matrix-Matrix Multiplication for Linear Scaling Density Functional Theory.
 http://dx.doi.org/10.1002/9781118670712.ch8


 Borstnik, U; VandeVondele, J; Weber, V; Hutter, J. 
 PARALLEL COMPUTING, 40 (5-6), 47-58 (2014). 
 Sparse matrix multiplication: The distributed block-compressed sparse
 row library.
 http://dx.doi.org/10.1016/j.parco.2014.03.012


 Hutter, J; Iannuzzi, M; Schiffmann, F; VandeVondele, J. 
 WILEY INTERDISCIPLINARY REVIEWS-COMPUTATIONAL MOLECULAR SCIENCE, 4 (1), 15-25 (2014). 
 CP2K: atomistic simulations of condensed matter systems.
 http://dx.doi.org/10.1002/wcms.1159


 Krack, M. 
 THEORETICAL CHEMISTRY ACCOUNTS, 114 (1-3), 145-152 (2005). 
 Pseudopotentials for H to Kr optimized for gradient-corrected
 exchange-correlation functionals.
 http://dx.doi.org/10.1007/s00214-005-0655-y


 VandeVondele, J; Krack, M; Mohamed, F; Parrinello, M; Chassaing, T;
 Hutter, J. COMPUTER PHYSICS COMMUNICATIONS, 167 (2), 103-128 (2005). 
 QUICKSTEP: Fast and accurate density functional calculations using a
 mixed Gaussian and plane waves approach.
 http://dx.doi.org/10.1016/j.cpc.2004.12.014


 Frigo, M; Johnson, SG. 
 PROCEEDINGS OF THE IEEE, 93 (2), 216-231 (2005). 
 The design and implementation of FFTW3.
 http://dx.doi.org/10.1109/JPROC.2004.840301


 VandeVondele, J; Hutter, J. 
 JOURNAL OF CHEMICAL PHYSICS, 118 (10), 4365-4369 (2003). 
 An efficient orbital transformation method for electronic structure
 calculations.
 http://dx.doi.org/10.1063/1.1543154


 Hartwigsen, C; Goedecker, S; Hutter, J. 
 PHYSICAL REVIEW B, 58 (7), 3641-3662 (1998). 
 Relativistic separable dual-space Gaussian pseudopotentials from H to Rn.
 http://dx.doi.org/10.1103/PhysRevB.58.3641


 Dudarev, SL; Botton, GA; Savrasov, SY; Humphreys, CJ; Sutton, AP. 
 PHYSICAL REVIEW B, 57 (3), 1505-1509 (1998). 
 Electron-energy-loss spectra and the structural stability of
 nickel oxide: An LSDA+U study.
 http://dx.doi.org/10.1103/PhysRevB.57.1505


 Lippert, G; Hutter, J; Parrinello, M. 
 MOLECULAR PHYSICS, 92 (3), 477-487 (1997). 
 A hybrid Gaussian and plane wave density functional scheme.
 http://dx.doi.org/10.1080/002689797170220


 Dudarev, SL; Manh, DN; Sutton, AP. 
 PHILOSOPHICAL MAGAZINE B, 75 (5), 613-628 (1997). 
 Effect of Mott-Hubbard correlations on the electronic
 structure and structural stability of uranium dioxide.
 http://dx.doi.org/10.1080/13642819708202343


 Goedecker, S; Teter, M; Hutter, J. 
 PHYSICAL REVIEW B, 54 (3), 1703-1710 (1996). 
 Separable dual-space Gaussian pseudopotentials.
 http://dx.doi.org/10.1103/PhysRevB.54.1703


 BECKE, AD. PHYSICAL REVIEW A, 38 (6), 3098-3100 (1988). 
 DENSITY-FUNCTIONAL EXCHANGE-ENERGY APPROXIMATION WITH CORRECT
 ASYMPTOTIC-BEHAVIOR.
 http://dx.doi.org/10.1103/PhysRevA.38.3098


 LEE, CT; YANG, WT; PARR, RG. 
 PHYSICAL REVIEW B, 37 (2), 785-789 (1988). 
 DEVELOPMENT OF THE COLLE-SALVETTI CORRELATION-ENERGY FORMULA INTO A
 FUNCTIONAL OF THE ELECTRON-DENSITY.
 http://dx.doi.org/10.1103/PhysRevB.37.785


 -------------------------------------------------------------------------------
 -                                                                             -
 -                                T I M I N G                                  -
 -                                                                             -
 -------------------------------------------------------------------------------
 SUBROUTINE                       CALLS  ASD         SELF TIME        TOTAL TIME
                                MAXIMUM       AVERAGE  MAXIMUM  AVERAGE  MAXIMUM
 CP2K                                 1  1.0     0.06     0.10 13571.83 13571.83
 qs_energies                          1  2.0     0.00     0.00 13571.38 13571.45
 qs_energies_properties               1  3.0     0.00     0.00 13558.39 13558.46
 maximal_orbital_analysis             1  4.0  1829.61  1855.88 13558.39 13558.46
 moax_frg                             3  5.0 11212.56 11384.07 11699.48 11699.48
 cp_gemm                             87  6.5     0.00     0.00   215.34   308.53
 cp_gemm_fm_gemm                     87  7.5     0.00     0.00   215.34   308.53
 cp_fm_gemm                          87  8.5   215.34   308.53   215.34   308.53
 orbmoa_frg                           6  6.0     6.02    20.65   293.06   293.44
 -------------------------------------------------------------------------------

 The number of warnings for this run is : 2
 
 -------------------------------------------------------------------------------
  **** **** ******  **  PROGRAM ENDED AT                 2020-02-25 04:26:29.550
 ***** ** ***  *** **   PROGRAM RAN ON            cpn-v11-08-01.compute.cbls.ccr
 **    ****   ******    PROGRAM RAN BY                                  pavankum
 ***** **    ** ** **   PROGRAM PROCESS ID                                265932
  **** **  *******  **  PROGRAM STOPPED IN /projects/academic/mdupuis2/pavan/MOA
                                           /Hematite/neutral_moa
