     270
 i =        1, E =    -15928.0586084111
 Fe         0.0326088667        2.9281679010       13.7646481215
 Fe         2.4862725498        4.3472851368        4.9205051679
 Fe         2.4861353437        1.5116628600        9.3412622077
 Fe         2.4861227409        4.3461053536        2.0946096657
 Fe         2.4864739425        1.5117976102        6.5154955778
 Fe         0.0320774765        2.9290282411       10.9382975558
 Fe         0.0323413490        2.9286418281        4.3053129984
 Fe         2.4856955139        4.3468717792        8.7260493288
 Fe         2.4870712295        1.5112952893       13.1498513159
 Fe         2.4866937241        1.5116306627        2.7087443423
 Fe         0.0321000205        2.9288610753        7.1307069269
 Fe         2.4868107220        4.3459758830       11.5527296186
 Fe         4.9407660863        2.9287865104       13.7644664629
 Fe         7.3941937748        4.3451953711        4.9201611809
 Fe         7.3952575457        1.5097552162        9.3408947383
 Fe         7.3946717748        4.3461361313        2.0946499708
 Fe         7.3962697702        1.5087139988        6.5153732030
 Fe         4.9408286051        2.9287706048       10.9378681931
 Fe         4.9406285637        2.9284906574        4.3052400775
 Fe         7.3945774776        4.3454469199        8.7265460085
 Fe         7.3954215452        1.5110732920       13.1496234545
 Fe         7.3950776316        1.5110220188        2.7088462679
 Fe         4.9408821882        2.9289392944        7.1310998706
 Fe         7.3952302232        4.3448470333       11.5537136706
 Fe         9.8488364448        2.9279839943       13.7646835155
 Fe        12.3034604593        4.3453198893        4.9204775284
 Fe        12.3016734286        1.5105343478        9.3401695956
 Fe        12.3031538312        4.3454701884        2.0946952290
 Fe        12.3011748194        1.5088705099        6.5150970867
 Fe         9.8491701889        2.9278840614       10.9362492375
 Fe         9.8484978686        2.9261539908        4.3046222072
 Fe        12.3028796497        4.3451439973        8.7261871591
 Fe        12.3023466960        1.5109974697       13.1499720817
 Fe        12.3022933061        1.5103809225        2.7100834668
 Fe         9.8486206879        2.9267186423        7.1306059927
 Fe        12.3032328536        4.3454253449       11.5537442961
 Fe        -2.4210975336        7.1791957211       13.7646185939
 Fe         0.0383557869        8.6031117113        4.9242938131
 Fe         0.0333978329        5.7638070435        9.3409233964
 Fe         0.0329973227        8.5971713295        2.0960502441
 Fe         0.0338597945        5.7652201035        6.5157800532
 Fe        -2.4213901197        7.1793479725       10.9367078084
 Fe        -2.4207048099        7.1804457368        4.3055863956
 Fe         0.0378140395        8.5980854953        8.7232608500
 Fe         0.0332197619        5.7631443202       13.1498453930
 Fe         0.0331163264        5.7632234218        2.7095992464
 Fe        -2.4199647048        7.1805484124        7.1307783231
 Fe         0.0326201294        8.5964596202       11.5522216834
 Fe         2.4865163162        7.1799240730       13.7646701789
 Fe         4.9314853994        8.5974050082        4.9242297638
 Fe         4.9403011266        5.7634569848        9.3411429588
 Fe         4.9388710315        8.5964200643        2.0966515772
 Fe         4.9385530415        5.7650180348        6.5152792731
 Fe         2.4864452947        7.1809167776       10.9363455165
 Fe         2.4881083963        7.1857774020        4.3093065084
 Fe         4.9357771825        8.6004493252        8.7233426481
 Fe         4.9404875296        5.7633156727       13.1504582414
 Fe         4.9398229409        5.7635707327        2.7092259330
 Fe         2.4874681512        7.1905355838        7.1288189691
 Fe         4.9400099028        8.5964905784       11.5521728668
 Fe         7.3946443288        7.1798714880       13.7641208579
 Fe         9.8493760445        8.5965093087        4.9196549647
 Fe         9.8487766231        5.7624778279        9.3412833620
 Fe         9.8485785494        8.5957934806        2.0941639166
 Fe         9.8487617937        5.7620785238        6.5148532555
 Fe         7.3935152883        7.1797976552       10.9366911514
 Fe         7.3936918962        7.1801138117        4.3051738709
 Fe         9.8480927329        8.5963574846        8.7264697101
 Fe         9.8484268351        5.7630891224       13.1499961575
 Fe         9.8493154067        5.7615570946        2.7086847494
 Fe         7.3929305686        7.1801749783        7.1308444977
 Fe         9.8491287942        8.5970644271       11.5536240925
 Fe        -4.8756922067       11.4294783978       13.7656003883
 Fe        -2.4204246381       12.8458431308        4.9204066976
 Fe        -2.4202021827       10.0129045727        9.3407217706
 Fe        -2.4205582859       12.8464127206        2.0950144756
 Fe        -2.4191324319       10.0134711153        6.5149591629
 Fe        -4.8758988396       11.4300186252       10.9383500588
 Fe        -4.8764769025       11.4298758577        4.3051558173
 Fe        -2.4204698730       12.8463655544        8.7265205108
 Fe        -2.4211392024       10.0130102623       13.1497256762
 Fe        -2.4202076478       10.0129248523        2.7096688440
 Fe        -4.8758465064       11.4300592112        7.1314033922
 Fe        -2.4214397349       12.8462931885       11.5530159773
 Fe         0.0327547371       11.4295894272       13.7647230527
 Fe         2.4897344007       12.8376426538        4.9240282471
 Fe         2.4863193809       10.0132275969        9.3300348148
 Fe         2.4866228305       12.8457901800        2.0950835393
 Fe         2.4859658132       10.0130397742        6.5206380975
 Fe         0.0338211579       11.4291248224       10.9369885878
 Fe         0.0367919625       11.4249557484        4.3090903848
 Fe         2.4850743936       12.8408516798        8.7233619186
 Fe         2.4867924829       10.0128397812       13.1496060433
 Fe         2.4861692328       10.0130180578        2.7131936532
 Fe         0.0418723304       11.4239365847        7.1290159105
 Fe         2.4866533697       12.8454626642       11.5526457527
 Fe         4.9405404878       11.4289864715       13.7657620615
 Fe         7.3928475715       12.8457763941        4.9204383896
 Fe         7.3934641843       10.0135851726        9.3406999622
 Fe         7.3939656747       12.8465729245        2.0943934250
 Fe         7.3911253197       10.0128728173        6.5148276705
 Fe         4.9397439373       11.4292527983       10.9361270061
 Fe         4.9341104206       11.4286212103        4.3089639501
 Fe         7.3930091750       12.8461301544        8.7263973493
 Fe         7.3940980611       10.0132202174       13.1495586134
 Fe         7.3935450625       10.0130212362        2.7094990412
 Fe         4.9308233001       11.4242929268        7.1289834455
 Fe         7.3944312650       12.8465510755       11.5528674887
  O        -0.9124776365        4.3451693706        3.5069798941
  O         3.9957970825        1.5113060729        7.9288548414
  O         1.5425722970        2.9277615794       12.3512589942
  O         4.1863536623        1.4026943835        3.5053023790
  O         1.7324796910        2.8187482648        7.9285346012
  O        -0.7215584947        4.2364089036       12.3515205741
  O         1.7309945768        3.0374802898        3.5054487157
  O        -0.7231766345        4.4540770195        7.9297007019
  O         4.1852970025        1.6215189966       12.3508505949
  O         0.9773370466        1.5111714858       14.5622312037
  O         3.4308523941        2.9275494886        5.7174188496
  O         0.9769816196        4.3442486405       10.1404963783
  O         0.7871578548        4.4546108395       14.5620768228
  O         0.7878256479        1.6216468986        5.7177026013
  O         3.2414894738        3.0377072464       10.1402862627
  O         3.2410894871        2.8191314795       14.5620890517
  O         0.7867217937        4.2356608605        5.7175483079
  O         0.7866936834        1.4029618602       10.1402902024
  O         3.9962593096        4.3444724603        3.5060802446
  O         8.9035815249        1.5136054706        7.9289939361
  O         6.4501905830        2.9283062116       12.3520551166
  O         9.0939674094        1.4038655725        3.5041023726
  O         6.6401762533        2.8196265689        7.9291967999
  O         4.1865872664        4.2364805804       12.3512054641
  O         6.6390085297        3.0380693563        3.5060165770
  O         4.1857694649        4.4540070101        7.9299316677
  O         9.0938350981        1.6218421879       12.3512468838
  O         5.8848171013        1.5114458032       14.5618105985
  O         8.3389207667        2.9289063022        5.7168769763
  O         5.8859158596        4.3442226496       10.1409407428
  O         5.6958918901        4.4541762371       14.5629579760
  O         5.6945173533        1.6219854301        5.7179630964
  O         8.1491673311        3.0384789523       10.1408835872
  O         8.1491024199        2.8202694072       14.5620230174
  O         5.6955503921        4.2357978598        5.7173480918
  O         5.6944333860        1.4026482216       10.1407599333
  O         8.9043302391        4.3455762102        3.5062419510
  O        13.8134506565        1.5119610701        7.9289413104
  O        11.3581481234        2.9286501731       12.3520002009
  O        14.0037850212        1.4028913483        3.5056233562
  O        11.5490617959        2.8199272400        7.9285516017
  O         9.0953948764        4.2364286688       12.3512885374
  O        11.5477007661        3.0384890979        3.5060046511
  O         9.0938952105        4.4552562247        7.9295292229
  O        14.0020101731        1.6214063670       12.3512059684
  O        10.7941663537        1.5124438904       14.5619435148
  O        13.2484671988        2.9282817293        5.7169275128
  O        10.7940567785        4.3452791144       10.1402239323
  O        10.6039383260        4.4552280814       14.5622246060
  O        10.6041675696        1.6244795164        5.7182940484
  O        13.0575383355        3.0381409878       10.1416394930
  O        13.0579813797        2.8195411263       14.5624708708
  O        10.6037374405        4.2367795382        5.7172186514
  O        10.6041307815        1.4034394651       10.1415141872
  O        -3.3668000295        8.5959605272        3.5063289284
  O         1.5413640064        5.7589874079        7.9298317401
  O        -0.9125685729        7.1784006355       12.3520878658
  O         1.7318252417        5.6508306717        3.5042202823
  O        -0.7235737192        7.0682783281        7.9290969831
  O        -3.1757393399        8.4868142130       12.3511735276
  O        -0.7246686859        7.2871283523        3.5049510559
  O        -3.1777438448        8.7052568418        7.9298804692
  O         1.7313766412        5.8714027851       12.3511223047
  O        -1.4770595510        5.7613701707       14.5620769825
  O         0.9754342352        7.1751721191        5.7174809036
  O        -1.4784586860        8.5946901578       10.1406207461
  O        -1.6678672013        8.7056641478       14.5620385651
  O        -1.6672639391        5.8716646207        5.7172156516
  O         0.7868318305        7.2873845649       10.1418446739
  O         0.7872952929        7.0697488412       14.5624337940
  O        -1.6701098843        8.4857813354        5.7185543315
  O        -1.6675950642        5.6521762689       10.1406013888
  O         1.5410561885        8.5949026680        3.5028445239
  O         6.4509064557        5.7610495446        7.9294371821
  O         3.9966334507        7.1780527541       12.3513881031
  O         6.6409886627        5.6530203238        3.5054693414
  O         4.1883331936        7.0670461694        7.9307265306
  O         1.7319932722        8.4867467918       12.3511839558
  O         4.1872355333        7.2868365176        3.5037334158
  O         1.7255043276        8.6964173383        7.9366223107
  O         6.6398900179        5.8714577771       12.3515711528
  O         3.4310210176        5.7614195964       14.5621795838
  O         5.8875707670        7.1763357105        5.7181806675
  O         3.4317698186        8.5939312190       10.1423020756
  O         3.2417379621        8.7052381495       14.5612032075
  O         3.2421335213        5.8681782124        5.7169520120
  O         5.6965525715        7.2875860705       10.1414921054
  O         5.6959891841        7.0695723636       14.5621313046
  O         3.2499504137        8.4700016335        5.7089980677
  O         3.2410428437        5.6527365135       10.1399670343
  O         6.4524081457        8.5954369282        3.5052816269
  O        11.3581046288        5.7620853266        7.9295244400
  O         8.9044961125        7.1784599727       12.3504450801
  O        11.5482612218        5.6523540563        3.5062043783
  O         9.0951079949        7.0696267145        7.9282693716
  O         6.6409052128        8.4865651063       12.3521501227
  O         9.0941706198        7.2883729145        3.5051707398
  O         6.6417395602        8.7052685658        7.9293503036
  O        11.5471449727        5.8721309311       12.3513157311
  O         8.3390181825        5.7617164626       14.5617991514
  O        10.7929752771        7.1784636819        5.7171756759
  O         8.3402622920        8.5953225643       10.1403444013
  O         8.1505607031        8.7054369633       14.5621503981
  O         8.1503708388        5.8715605003        5.7172966469
  O        10.6031361895        7.2887144870       10.1407856937
  O        10.6036536567        7.0694986513       14.5626284202
  O         8.1507704981        8.4865024900        5.7170646902
  O         8.1497065175        5.6527301935       10.1406430528
  O        -5.8199769485       12.8462417089        3.5053145052
  O        -0.9155140705       10.0123989622        7.9301929310
  O        -3.3665345466       11.4298384481       12.3516353930
  O        -0.7242896709        9.9031654852        3.5030668985
  O        -3.1768006146       11.3206749531        7.9292414041
  O        -5.6297270074       12.7376481557       12.3514847089
  O        -3.1777499176       11.5398630611        3.5057497455
  O        -5.6310932159       12.9568528684        7.9291547000
  O        -0.7237572255       10.1221531683       12.3518023525
  O        -3.9314778699       10.0119516757       14.5620098045
  O        -1.4804409586       11.4311110698        5.7170861569
  O        -3.9318817336       12.8458552565       10.1397058548
  O        -4.1208976878       12.9565364119       14.5625991858
  O        -4.1218516252       10.1230607943        5.7175998948
  O        -1.6668267967       11.5399550851       10.1403998800
  O        -1.6670499040       11.3207207463       14.5625089044
  O        -4.1219744399       12.7375399249        5.7176425450
  O        -4.1218685506        9.9038019762       10.1410691691
  O        -0.9135080665       12.8480405087        3.5044581175
  O         4.0063466135       10.0119097526        7.9361500406
  O         1.5417627847       11.4298656015       12.3522777666
  O         4.1872940166        9.9033917430        3.5029174534
  O         1.7274422676       11.3301568108        7.9361088438
  O        -0.7221598480       12.7378599312       12.3508977952
  O         1.7312141025       11.5405135132        3.5031003967
  O        -0.7255017402       12.9585720298        7.9299631468
  O         4.1853693220       10.1222873479       12.3510019646
  O         0.9761686044       10.0126639563       14.5611807546
  O         3.4415417654       11.4454750771        5.7092645200
  O         0.9762204623       12.8468282348       10.1412556249
  O         0.7871536242       12.9572731914       14.5615672327
  O         0.7677621972       10.1234781838        5.7091897483
  O         3.2430521116       11.5412271769       10.1425988498
  O         3.2414727656       11.3209432660       14.5612826339
  O         0.7846036672       12.7404335122        5.7171965560
  O         0.7847520136        9.9042631788       10.1425033952
  O         3.9965975232       12.8484267716        3.5028751369
  O         8.9052422760       10.0124703164        7.9292528006
  O         6.4511529434       11.4295034892       12.3514126890
  O         9.0946991986        9.9031354758        3.5063108573
  O         6.6437291430       11.3209538407        7.9298528649
  O         4.1873062793       12.7369110722       12.3516973997
  O         6.6422505521       11.5400675697        3.5049490828
  O         4.1864811204       12.9587999194        7.9301409375
  O         9.0933460571       10.1227604099       12.3516091592
  O         5.8859492372       10.0125573217       14.5623264738
  O         8.3404690029       11.4298116574        5.7173042057
  O         5.8858465755       12.8471718498       10.1402471748
  O         5.6959701087       12.9568472433       14.5622611388
  O         5.6996709747       10.1230487234        5.7171353243
  O         8.1506727258       11.5400542464       10.1408397530
  O         8.1500710149       11.3207605137       14.5628756612
  O         5.6975911088       12.7398448699        5.7165941384
  O         5.6971934703        9.9037086372       10.1418728346
     270
 i =        2, E =    -15928.0726932999
 Fe         0.0325079445        2.9282344840       13.7598850799
 Fe         2.4862095521        4.3481913224        4.9157099055
 Fe         2.4861681005        1.5116335630        9.3361583417
 Fe         2.4860127551        4.3463757583        2.0999379858
 Fe         2.4864729748        1.5117492293        6.5203085152
 Fe         0.0320178351        2.9289686461       10.9429263456
 Fe         0.0324630118        2.9286721640        4.3104248171
 Fe         2.4857366434        4.3473781263        8.7304013090
 Fe         2.4870007785        1.5113618908       13.1548450200
 Fe         2.4866808838        1.5115918790        2.7040951912
 Fe         0.0319475640        2.9290000744        7.1256735798
 Fe         2.4867911998        4.3461389327       11.5476005259
 Fe         4.9407963031        2.9287830998       13.7597300777
 Fe         7.3942368684        4.3452794979        4.9154695396
 Fe         7.3955663094        1.5092684118        9.3354626831
 Fe         7.3945370545        4.3459782145        2.0997321135
 Fe         7.3962021486        1.5078508080        6.5203214718
 Fe         4.9407969764        2.9287705692       10.9425514338
 Fe         4.9405629771        2.9283913601        4.3103790892
 Fe         7.3944564591        4.3452166223        8.7312891843
 Fe         7.3954000122        1.5109954247       13.1546297819
 Fe         7.3952918327        1.5105092909        2.7046159438
 Fe         4.9411265581        2.9289312870        7.1260453453
 Fe         7.3952134830        4.3449247005       11.5485748946
 Fe         9.8488057530        2.9279704423       13.7598287944
 Fe        12.3033901361        4.3452918778        4.9157876105
 Fe        12.3010880127        1.5099769489        9.3348850709
 Fe        12.3032790679        4.3453603559        2.0997391207
 Fe        12.3009440164        1.5076175636        6.5197609650
 Fe         9.8491144100        2.9276242514       10.9410995766
 Fe         9.8484964610        2.9250944996        4.3099928086
 Fe        12.3031242243        4.3451766193        8.7309771526
 Fe        12.3023553007        1.5109736083       13.1549484308
 Fe        12.3021364240        1.5102031387        2.7055289054
 Fe         9.8487532300        2.9262403187        7.1255006320
 Fe        12.3032105402        4.3454564528       11.5486159267
 Fe        -2.4210119573        7.1792280676       13.7598185334
 Fe         0.0402784715        8.6056770621        4.9215294592
 Fe         0.0336503389        5.7642855579        9.3354891911
 Fe         0.0331523473        8.5971433639        2.1018612239
 Fe         0.0346329860        5.7656678667        6.5207188925
 Fe        -2.4211973302        7.1794638467       10.9414599172
 Fe        -2.4196516046        7.1808821327        4.3108237964
 Fe         0.0391151637        8.5985206428        8.7267522039
 Fe         0.0332225370        5.7631722442       13.1548936616
 Fe         0.0333727821        5.7636507005        2.7053222763
 Fe        -2.4197081901        7.1808369072        7.1257545790
 Fe         0.0327585695        8.5965731447       11.5465062317
 Fe         2.4864945950        7.1799565042       13.7599342603
 Fe         4.9282986224        8.5978435566        4.9214895570
 Fe         4.9401250765        5.7642957988        9.3357567925
 Fe         4.9388887249        8.5965254839        2.1024235105
 Fe         4.9377040690        5.7658352478        6.5200138289
 Fe         2.4864147703        7.1811454578       10.9406451903
 Fe         2.4892446502        7.1879647086        4.3163897693
 Fe         4.9348336978        8.6012822795        8.7268564383
 Fe         4.9405153671        5.7633009905       13.1553976859
 Fe         4.9397534939        5.7638019766        2.7048286776
 Fe         2.4877890451        7.1964030357        7.1224924845
 Fe         4.9398411761        8.5964598851       11.5464793676
 Fe         7.3944690235        7.1798867330       13.7593690071
 Fe         9.8493382043        8.5964841735        4.9150709404
 Fe         9.8488107898        5.7624652860        9.3362000833
 Fe         9.8486750034        8.5959435082        2.0993179805
 Fe         9.8488035090        5.7621516501        6.5198552216
 Fe         7.3934718566        7.1798513029       10.9414737161
 Fe         7.3926912019        7.1807114932        4.3104517816
 Fe         9.8481892175        8.5964883262        8.7311861300
 Fe         9.8484992822        5.7629545381       13.1548571090
 Fe         9.8492615351        5.7616534569        2.7041150793
 Fe         7.3924837336        7.1802829581        7.1257572987
 Fe         9.8490837392        8.5968769807       11.5484268879
 Fe        -4.8757211705       11.4295094668       13.7607722494
 Fe        -2.4195618035       12.8455009634        4.9156928546
 Fe        -2.4194512960       10.0125499702        9.3353747202
 Fe        -2.4203264824       12.8464505974        2.1002894691
 Fe        -2.4178703778       10.0138451489        6.5196982906
 Fe        -4.8759012355       11.4299798571       10.9430055540
 Fe        -4.8765054706       11.4299392998        4.3102910594
 Fe        -2.4200579873       12.8461783604        8.7307991449
 Fe        -2.4211286146       10.0129714536       13.1548075217
 Fe        -2.4200152946       10.0128874765        2.7051496311
 Fe        -4.8759878665       11.4297482424        7.1263100822
 Fe        -2.4212519172       12.8462870683       11.5478409821
 Fe         0.0328721901       11.4295910573       13.7600198001
 Fe         2.4909505699       12.8346935215        4.9212584032
 Fe         2.4863103296       10.0131984203        9.3175745651
 Fe         2.4865851015       12.8456309912        2.1010214351
 Fe         2.4860206994       10.0130217538        6.5271225698
 Fe         0.0340199147       11.4290521875       10.9412319238
 Fe         0.0381717136       11.4229366721        4.3162187771
 Fe         2.4848046571       12.8395468513        8.7268427188
 Fe         2.4867282062       10.0128548112       13.1547428376
 Fe         2.4862068480       10.0130347346        2.7107277333
 Fe         0.0466992450       11.4206791470        7.1226333098
 Fe         2.4867952575       12.8454087578       11.5469039065
 Fe         4.9404258221       11.4290227485       13.7608697130
 Fe         7.3921928472       12.8452677279        4.9157065027
 Fe         7.3928701991       10.0135059445        9.3352664923
 Fe         7.3938712487       12.8462899476        2.0997761577
 Fe         7.3905511227       10.0133178140        6.5198356982
 Fe         4.9395088453       11.4290736902       10.9405064606
 Fe         4.9316551452       11.4283816824        4.3161119482
 Fe         7.3927036951       12.8458039054        8.7306759195
 Fe         7.3940040749       10.0131947082       13.1546724547
 Fe         7.3930721880       10.0130605380        2.7052285511
 Fe         4.9255098085       11.4217221076        7.1225805000
 Fe         7.3943067542       12.8465118356       11.5477648673
  O        -0.9150824545        4.3451152159        3.5066402672
  O         3.9931122825        1.5114141874        7.9290200225
  O         1.5400390079        2.9278397363       12.3512811644
  O         4.1873018273        1.4006591795        3.5052340431
  O         1.7336568955        2.8163689686        7.9287095671
  O        -0.7203965343        4.2341215826       12.3515349254
  O         1.7322699127        3.0394106503        3.5053679921
  O        -0.7220815285        4.4559808725        7.9297578469
  O         4.1866504753        1.6235990564       12.3509110342
  O         0.9798525046        1.5112128005       14.5621076372
  O         3.4334058795        2.9275132436        5.7173092024
  O         0.9794548871        4.3442436006       10.1406876684
  O         0.7858849844        4.4566427600       14.5618741610
  O         0.7866437040        1.6238127644        5.7175392040
  O         3.2402311594        3.0397760575       10.1404875836
  O         3.2398695884        2.8169069977       14.5620090799
  O         0.7852803301        4.2330519658        5.7175355196
  O         0.7856498666        1.4007587190       10.1404765607
  O         3.9938755512        4.3443002109        3.5057764669
  O         8.9008537584        1.5141830765        7.9294266489
  O         6.4476685522        2.9283307820       12.3520094431
  O         9.0951315573        1.4023356204        3.5036241900
  O         6.6412248951        2.8177793647        7.9293232434
  O         4.1877827901        4.2341608236       12.3512618630
  O         6.6404072198        3.0404446081        3.5058538641
  O         4.1871849379        4.4557887584        7.9300228552
  O         9.0952205003        1.6240392847       12.3513092786
  O         5.8872548976        1.5115642399       14.5615963112
  O         8.3414285365        2.9292188899        5.7169566943
  O         5.8884049297        4.3444217174       10.1408997168
  O         5.6946305700        4.4563902056       14.5627109998
  O         5.6931090265        1.6244690749        5.7178723789
  O         8.1478713116        3.0407338029       10.1409428639
  O         8.1478736633        2.8181761027       14.5618337201
  O         5.6942458838        4.2334957645        5.7174717045
  O         5.6932079615        1.4004921168       10.1409389699
  O         8.9018026206        4.3456282830        3.5061321411
  O        13.8111725144        1.5122916053        7.9291639558
  O        11.3557727477        2.9287559471       12.3520011353
  O        14.0050271721        1.4008623061        3.5053671936
  O        11.5502407295        2.8180816454        7.9287891283
  O         9.0964762251        4.2342535784       12.3512978038
  O        11.5491817360        3.0408829596        3.5058077855
  O         9.0953133976        4.4574870599        7.9294652889
  O        14.0033838454        1.6235808216       12.3513217664
  O        10.7966553999        1.5124459745       14.5617612731
  O        13.2509612335        2.9283537658        5.7170873592
  O        10.7964530450        4.3454267050       10.1403241498
  O        10.6026613470        4.4574100810       14.5621882051
  O        10.6026073402        1.6278374960        5.7178778150
  O        13.0562716319        3.0403161544       10.1415187279
  O        13.0568025097        2.8174186632       14.5623104154
  O        10.6025150420        4.2348332024        5.7172228165
  O        10.6030343389        1.4015848375       10.1418771881
  O        -3.3695609687        8.5959623354        3.5060754849
  O         1.5386614381        5.7588305347        7.9294274329
  O        -0.9151734410        7.1784844909       12.3520176632
  O         1.7332970681        5.6483475902        3.5045081625
  O        -0.7227309019        7.0655071168        7.9294666844
  O        -3.1747485861        8.4845634996       12.3512601358
  O        -0.7238704671        7.2889749046        3.5044029945
  O        -3.1768100979        8.7072809905        7.9299601471
  O         1.7327313282        5.8734659967       12.3512861508
  O        -1.4747352406        5.7613315107       14.5618894087
  O         0.9772738202        7.1743042522        5.7170221544
  O        -1.4763654738        8.5947904817       10.1411121728
  O        -1.6691388698        8.7077816763       14.5618713526
  O        -1.6687842267        5.8735965042        5.7173049841
  O         0.7851850951        7.2890126908       10.1429109777
  O         0.7859004872        7.0673652480       14.5620683310
  O        -1.6722868856        8.4827100301        5.7181396286
  O        -1.6688289631        5.6498567944       10.1407007539
  O         1.5379578053        8.5945709471        3.5014123643
  O         6.4487331255        5.7609621904        7.9295506717
  O         3.9940988558        7.1780864227       12.3515319263
  O         6.6423054972        5.6505423583        3.5053375584
  O         4.1900572578        7.0634580430        7.9312234066
  O         1.7332022542        8.4843818076       12.3514377930
  O         4.1890556918        7.2884303465        3.5022547799
  O         1.7237341919        8.6929066093        7.9414984772
  O         6.6412631193        5.8735652512       12.3516470944
  O         3.4335814841        5.7614048970       14.5618137970