      77
 i =        1, E =     -1335.5339804063
 Fe        18.3809095582       -0.0000015064       -0.0010205467
 Fe        15.2911636318        0.0000008311       -0.0000314291
 Fe        12.2131034624       -0.0000042204       -0.0000360342
 Fe         9.1061654874        0.0000230838        0.0002754394
 Fe         6.1147285613        0.0000003685       -0.0000040859
 Fe         3.1147974886       -0.0000148796        0.0001740990
 Fe         0.0285953887        0.0000042201       -0.0000056668
  O        18.3225346220        0.0000102960        2.1462728535
  O        18.3223948097       -0.0000077684       -2.1470135827
  O        19.8740557325       -1.2624005439       -0.0000390622
  O        19.8740526261        1.2623978950       -0.0000916382
  O        15.2700470392        0.0000221077        2.1426745515
  O        15.2699560729       -0.0000163254       -2.1427385283
  O        16.8319326017       -1.2467154022        0.0000270062
  O        16.8319319714        1.2467154774       -0.0000234953
  O        12.2347929672        0.0000254636        2.1427680201
  O        12.2348292444       -0.0000360911       -2.1429035384
  O        13.7727598964       -1.2518090432        0.0001004788
  O        13.7727594052        1.2518088833        0.0000362461
  O         9.2320699168       -0.0007306487        2.1209239669
  O         9.2330957614        0.0007344544       -2.1206795330
  O        10.7199044206       -1.2444996651        0.0000440269
  O        10.7199209367        1.2445032229       -0.0000125258
  O         6.1253268265        0.0003170618        2.2769545250
  O         6.1252813867       -0.0002986673       -2.2769647449
  O         7.7407872098       -1.3170714802       -0.0012440671
  O         7.7407608810        1.3170879164        0.0005007381
  O         2.9895185407       -0.0002226163        2.1581251648
  O         2.9897855109        0.0002260731       -2.1576536901
  O         4.4889378089       -1.3269518526       -0.0010554956
  O         4.4889328449        1.3269184789        0.0024606020
  O        -0.0245524671        0.0000449771        2.1451740707
  O        -0.0245618064       -0.0000491499       -2.1451553461
  O         1.5169014552       -1.2539229357        0.0000321120
  O         1.5169121525        1.2539251839       -0.0001061467
  H        18.3798971901       -0.8152532626       -2.6942827014
  H        18.3798857316        0.8152402767       -2.6942810372
  H        18.3799526644       -0.8148691626        2.6941753580
  H        18.3800059951        0.8148894741        2.6941692893
  H        19.8669086959       -2.2422451606       -0.0000295702
  H        19.8669114182        2.2422417200       -0.0000372492
  H        15.2253744930       -0.8142823345       -2.6925057137
  H        15.2255107155        0.8142490740       -2.6925196421
  H        15.2256117955       -0.8141831512        2.6925460347
  H        15.2254575300        0.8142256149        2.6925338266
  H        16.8082150450       -2.2289664917       -0.0000113098
  H        16.8082184846        2.2289670031       -0.0000233064
  H        12.0951508191       -0.8102563654       -2.6826810408
  H        12.0955330576        0.8102516545       -2.6826799219
  H        12.0956590597       -0.8101293194        2.6828056935
  H        12.0952489175        0.8101139827        2.6827988453
  H        13.7500207357       -2.2333243248        0.0000004670
  H        13.7500111030        2.2333241530        0.0000026394
  H         9.0408453912       -0.7923912355       -2.6722307932
  H         9.0419056683        0.7934220986       -2.6730295346
  H         9.0415617840       -0.7937108847        2.6729591390
  H         9.0405012305        0.7926702695        2.6721834437
  H        10.6903276782       -2.2253398913       -0.0000528572
  H        10.6903388184        2.2253410570        0.0002698739
  H         6.1129262088       -0.8082122829       -2.8366946530
  H         6.1129676578        0.8077710561       -2.8364686804
  H         6.1128809695       -0.8077301798        2.8364899588
  H         6.1128630348        0.8082109874        2.8367111621
  H         7.7338054165       -2.2945387587       -0.0001714676
  H         7.7337995617        2.2945545500       -0.0005633661
  H         3.1874173167       -0.8053866644       -2.6870639176
  H         3.1864030092        0.8057916878       -2.6874683494
  H         3.1861070930       -0.8058418787        2.6878585926
  H         3.1872081309        0.8054327465        2.6874379864
  H         4.5006943092       -2.3034502731        0.0005899387
  H         4.5006753195        2.3034208871        0.0001611351
  H         0.1263311610       -0.8095687287       -2.6837210349
  H         0.1261798382        0.8095082799       -2.6837091904
  H         0.1262551236       -0.8095591157        2.6836194870
  H         0.1265052883        0.8096005652        2.6836206844
  H         1.5426970956       -2.2334425054       -0.0002731426
  H         1.5426987407        2.2334456555        0.0000143558
      77
 i =        2, E =     -1335.5320798987
 Fe        18.3607913608        0.0000032583       -0.0004164695
 Fe        15.3296902310       -0.0000109281        0.0005681935
 Fe        12.2244915431        0.0000121302        0.0000295401
 Fe         9.1436781711       -0.0000174215        0.0005452181
 Fe         6.1485501093        0.0000358634        0.0000693199
 Fe         3.1679189270        0.0001872190       -0.0032624249
 Fe         0.0464301930       -0.0000210926        0.0000498292
  O        18.3097392220        0.0000174789        2.1349991300
  O        18.3099023714       -0.0000141055       -2.1344346397
  O        19.8651384773       -1.2482499261       -0.0003319747
  O        19.8651537367        1.2482434075       -0.0004220717
  O        15.2628314999        0.0000322770        2.1329644250
  O        15.2629507701       -0.0000252636       -2.1325551278
  O        16.8250504843       -1.2590468825       -0.0002205354
  O        16.8250414333        1.2590406806       -0.0003596188
  O        12.2315949597        0.0000466338        2.1392639241
  O        12.2319161883       -0.0000625120       -2.1391691376
  O        13.7944720889       -1.2363637681        0.0001309557
  O        13.7944892044        1.2363667576        0.0000168905
  O         9.2783414448       -0.0016412726        2.1425735998
  O         9.2750913098        0.0015811550       -2.1411354766
  O        10.7515088502       -1.2481725853        0.0001386537
  O        10.7514632655        1.2481563872        0.0001909390
  O         6.1278261618        0.0002553885        2.2671269819
  O         6.1278432745       -0.0002304998       -2.2671080789
  O         7.7862273355       -1.3128755607       -0.0052685787
  O         7.7863947176        1.3130182781        0.0021369029
  O         3.0063463832       -0.0004403863        2.1385670228
  O         3.0058948059        0.0004401165       -2.1407403428
  O         4.5215074709       -1.3233688282       -0.0016022533
  O         4.5216570709        1.3233942872        0.0039121021
  O        -0.0515526193        0.0000702589        2.1400706722
  O        -0.0516289812       -0.0000728244       -2.1400809122
  O         1.5403656809       -1.2430717508        0.0000773773
  O         1.5402416084        1.2431474250       -0.0002096929
  H        18.3817017619       -0.8158492371       -2.7014538413
  H        18.3816882566        0.8158285929       -2.7014462790
  H        18.3817658362       -0.8163848064        2.7011687629
  H        18.3818230121        0.8164137413        2.7011683551
  H        19.8696121331       -2.2443213787        0.0000173617
  H        19.8696075488        2.2443169503        0.0000100368
  H        15.2230459834       -0.8176858508       -2.6994296722
  H        15.2231932926        0.8176412699       -2.6994349753
  H        15.2233488124       -0.8178622001        2.6994905685
  H        15.2231839548        0.8179187153        2.6994866269
  H        16.8118866365       -2.2515761407        0.0000350143
  H        16.8118918871        2.2515703768        0.0000246311
  H        12.0894038325       -0.8193043402       -2.6876347580
  H        12.0898112235        0.8192691751       -2.6876145944
  H        12.0900020870       -0.8194080947        2.6876726310
  H        12.0895674598        0.8194158816        2.6876815712
  H        13.7528393329       -2.2315309394        0.0000085241
  H        13.7528292520        2.2315333337        0.0000104271
  H         9.0433271522       -0.8238242062       -2.6581365650
  H         9.0442544749        0.8260167286       -2.6595867865
  H         9.0437698401       -0.8258654081        2.6600056223
  H         9.0428589861        0.8235827430        2.6585343967
  H        10.6923881008       -2.2395906499       -0.0000846459
  H        10.6924048050        2.2395774506        0.0002531044
  H         6.1130492586       -0.8179255000       -2.8376814434
  H         6.1131455470        0.8174103236       -2.8377490660
  H         6.1130301862       -0.8173991726        2.8377416881
  H         6.1129583796        0.8179619237        2.8376746232
  H         7.7341736753       -2.3041148888       -0.0003175266
  H         7.7341700769        2.3042446909       -0.0004266928
  H         3.1873626752       -0.8167046986       -2.6826640291
  H         3.1862493769        0.8173274986       -2.6833306563
  H         3.1858576326       -0.8162533404        2.6833690155
  H         3.1870578464        0.8156216270        2.6826868482
  H         4.4986146677       -2.3169986916        0.0004144917
  H         4.4986074026        2.3170077297        0.0003552774
  H         0.1323355906       -0.8156972624       -2.6851607435
  H         0.1321596577        0.8156078064       -2.6851399491
  H         0.1322038601       -0.8156007386        2.6851248480
  H         0.1324821845        0.8156683078        2.6851374303
  H         1.5416162400       -2.2395705569       -0.0002840544
  H         1.5416228778        2.2396298193        0.0000680617
      77
 i =        3, E =     -1335.5377577730
 Fe        18.3516059954       -0.0000005626       -0.0004464278
 Fe        15.3023349089       -0.0000077794        0.0004269489
 Fe        12.1994637412       -0.0000146443        0.0000315210
 Fe         9.1265715706        0.0002529796       -0.0009165223
 Fe         6.1292769959        0.0003001138        0.0001589290
 Fe         3.1414296054       -0.0000504737       -0.0019853247
 Fe         0.0336220982        0.0000523012        0.0001262243
  O        18.3058336489        0.0000228514        2.1347876699
  O        18.3057453681       -0.0000188890       -2.1346451280
  O        19.8580517714       -1.2500654740       -0.0003962362
  O        19.8580275330        1.2500589993       -0.0005108241
  O        15.2694905722        0.0000388453        2.1335360232
  O        15.2694166326       -0.0000329931       -2.1333211731
  O        16.8132312687       -1.2563798650       -0.0001824375
  O        16.8132170286        1.2563738349       -0.0003392687
  O        12.2325455511        0.0000636426        2.1415745258
  O        12.2324589627       -0.0000791688       -2.1415851057
  O        13.7630480099       -1.2377361818        0.0004258618
  O        13.7630507302        1.2377554972        0.0000962604
  O         9.2657864361       -0.0021408535        2.1518897976
  O         9.2613398580        0.0020833801       -2.1518997025
  O        10.7288873615       -1.2584254609        0.0002498844
  O        10.7289412092        1.2583720415        0.0005309606
  O         6.1252265420        0.0001561569        2.2664803053
  O         6.1245041928       -0.0001203951       -2.2664404268
  O         7.7593222381       -1.3129774808       -0.0228938212
  O         7.7597127051        1.3142788262        0.0091515310
  O         3.0150173850       -0.0005250736        2.1440499500
  O         3.0151833547        0.0005474908       -2.1446586072
  O         4.4960373595       -1.3297883923       -0.0038986551
  O         4.4958611740        1.3295549961        0.0085126481
  O        -0.0384115383        0.0000847890        2.1417508511
  O        -0.0383334716       -0.0000904734       -2.1417549351
  O         1.5135392890       -1.2487192115       -0.0002244873
  O         1.5136955067        1.2487840531       -0.0009000793
  H        18.3819128368       -0.8124483365       -2.7006029494
  H        18.3818971586        0.8124222220       -2.7005906015
  H        18.3820128174       -0.8125280597        2.7005276177
  H        18.3820727425        0.8125628494        2.7005328412
  H        19.8705789517       -2.2415079098        0.0000112727
  H        19.8705821033        2.2414929427        0.0000001290
  H        15.2213520264       -0.8136596411       -2.6994634744
  H        15.2215036622        0.8136070850       -2.6994613868
  H        15.2216650772       -0.8136140294        2.6996309142
  H        15.2214966357        0.8136786813        2.6996310380
  H        16.8143363344       -2.2464335978        0.0000175374
  H        16.8143392798        2.2464282943        0.0000020018
  H        12.0868798808       -0.8145804032       -2.6897188558
  H        12.0872859994        0.8145218278       -2.6896880082
  H        12.0873933085       -0.8145159041        2.6897231867
  H        12.0869608116        0.8145442383        2.6897479857
  H        13.7562056815       -2.2293911111        0.0000058972
  H        13.7562010414        2.2294160115        0.0000061501
  H         9.0435610340       -0.8220372374       -2.6655374112
  H         9.0444380598        0.8249257117       -2.6673306071
  H         9.0443826160       -0.8240470665        2.6673621511
  H         9.0435294135        0.8210671660        2.6655468733
  H        10.6955332591       -2.2462617881       -0.0001058982
  H        10.6955229132        2.2461817845        0.0002714998
  H         6.1135867368       -0.8139239335       -2.8366154989
  H         6.1136561587        0.8134303690       -2.8369356164
  H         6.1133297097       -0.8134264500        2.8369174421
  H         6.1132859202        0.8139774433        2.8366101439
  H         7.7365541964       -2.3013587495       -0.0006367549
  H         7.7365248660        2.3025347796       -0.0002368738
  H         3.1877402887       -0.8158435747       -2.6839184478
  H         3.1865587618        0.8165771207       -2.6847366240
  H         3.1862211528       -0.8166971592        2.6841279360
  H         3.1874932252        0.8159622215        2.6833479224
  H         4.5040469678       -2.3178043756        0.0003209871
  H         4.5040894150        2.3175524867        0.0007251360
  H         0.1319804438       -0.8136893879       -2.6862334715
  H         0.1317967676        0.8135767825       -2.6861964363
  H         0.1319044608       -0.8135728667        2.6861456469
  H         0.1321881757        0.8136616319        2.6861697372
  H         1.5441991611       -2.2387815969       -0.0002247795
  H         1.5441718362        2.2388651639        0.0001516441
      77
 i =        4, E =     -1335.5347093946
 Fe        18.3281052452        0.0000110976        0.0003769699
 Fe        15.2307369318        0.0000620474       -0.0042594429
 Fe        12.2016398301        0.0000906969        0.0002720260
 Fe         9.1697847393       -0.0010918099        0.0054582125
 Fe         6.1116929406        0.0009657779       -0.0007556363
 Fe         3.0989280431       -0.0001441141        0.0007734449
 Fe         0.0298979428       -0.0000448732        0.0000347360
  O        18.3056866971        0.0000370433        2.1393133797
  O        18.3055905424       -0.0000318019       -2.1393196477
  O        19.8534189068       -1.2465988444       -0.0004883151
  O        19.8534869867        1.2465555716       -0.0006700546
  O        15.2677677191        0.0000697124        2.1388195996
  O        15.2674242938       -0.0000643369       -2.1417786944
  O        16.7864102980       -1.2435691308       -0.0000851896
  O        16.7864417807        1.2436154507       -0.0002788516
  O        12.2311148144        0.0001095158        2.1463212325
  O        12.2301857829       -0.0001307622       -2.1461794597
  O        13.7415872430       -1.2565880094        0.0011126252
  O        13.7416027658        1.2566572731        0.0002728184
  O         9.2220574508       -0.0037920172        2.1418522622
  O         9.2206533459        0.0036558849       -2.1390178936
  O        10.7366871160       -1.2704854821        0.0005039322
  O        10.7359210185        1.2699131047        0.0005754702
  O         6.1278408215       -0.0008487349        2.2647763559
  O         6.1268200215        0.0009841651       -2.2651379176
  O         7.7567803361       -1.2905479387       -0.0308438822
  O         7.7584050830        1.2921767815        0.0172672923
  O         3.0115815016       -0.0009749136        2.1553008859
  O         3.0131752870        0.0009886167       -2.1535651918
  O         4.4636815154       -1.3218155264       -0.0059496993
  O         4.4635958585        1.3212755383        0.0118364753
  O        -0.0216861989        0.0001386048        2.1442829306
  O        -0.0215344270       -0.0001273189       -2.1444251383
  O         1.4969302926       -1.2581481984       -0.0008825062
  O         1.4969116015        1.2581762359       -0.0023858137
  H        18.3817152911       -0.8117199571       -2.6970578442
  H        18.3816925139        0.8116780051       -2.6970329942
  H        18.3818732222       -0.8113898610        2.6973125921
  H        18.3819393191        0.8114413574        2.6973318925
  H        19.8704524640       -2.2311895568       -0.0000371596
  H        19.8704301160        2.2311464296       -0.0000580536
  H        15.2182464402       -0.8128990633       -2.6992701604
  H        15.2184059726        0.8128115989       -2.6992351596
  H        15.2185982193       -0.8111912738        2.6990243851
  H        15.2184225499        0.8112919702        2.6990540803
  H        16.8160588272       -2.2298009080       -0.0000246263
  H        16.8160693597        2.2298431080       -0.0000520827
  H        12.0818018861       -0.8084379357       -2.6921427441
  H        12.0822450857        0.8082964532       -2.6920908783
  H        12.0821463776       -0.8082216128        2.6920775549
  H        12.0816855724        0.8083235758        2.6921197498
  H        13.7582718762       -2.2383012931        0.0000195439
  H        13.7582438993        2.2383539040        0.0000132663
  H         9.0430064858       -0.8009497482       -2.6785623387
  H         9.0445253279        0.8055327450       -2.6824957231
  H         9.0455007122       -0.8073156758        2.6822473351
  H         9.0440710926        0.8025387696        2.6782728855
  H        10.6975615653       -2.2505238525       -0.0004460637
  H        10.6975689853        2.2500514995        0.0004817593
  H         6.1146477722       -0.8080751114       -2.8318679387
  H         6.1141507258        0.8081292459       -2.8342615297
  H         6.1131490269       -0.8078303574        2.8342250816
  H         6.1136681808        0.8079064867        2.8319998285
  H         7.7399042836       -2.2748113310       -0.0032884403
  H         7.7400190711        2.2764936444        0.0010808398
  H         3.1896519483       -0.8112547031       -2.6865633787
  H         3.1880832530        0.8124088340       -2.6881170622
  H         3.1879510910       -0.8137493531        2.6870886380
  H         3.1896035515        0.8125830500        2.6855658551
  H         4.5090436802       -2.3026230339       -0.0003564374
  H         4.5090697887        2.3020457724        0.0018263907
  H         0.1316429300       -0.8102263265       -2.6870581470
  H         0.1314491537        0.8100595842       -2.6869934823
  H         0.1316698834       -0.8099906896        2.6868633010
  H         0.1319656542        0.8101432268        2.6869495726
  H         1.5472436299       -2.2384466120       -0.0002160835
  H         1.5472385976        2.2385070899        0.0003028435
      77
 i =        5, E =     -1335.5374258831
 Fe        18.3288725769       -0.0001268442        0.0002310722
 Fe        15.2246650223        0.0002444663        0.0059210912
 Fe        12.2067913431       -0.0000949929        0.0002539174
 Fe         9.1587720748       -0.0006192843        0.0015870253
 Fe         6.1195949230        0.0014406208       -0.0020895198
 Fe         3.1152166222       -0.0018917069        0.0000337041
 Fe         0.0388573978        0.0000553037       -0.0003330989
  O        18.3041472096        0.0000488881        2.1380016063
  O        18.3037466208       -0.0000405781       -2.1380037858
  O        19.8599142089       -1.2470275024       -0.0005914295
  O        19.8598582567        1.2467838524       -0.0008641418
  O        15.2574811158        0.0001054460        2.1406246921
  O        15.2578394808       -0.0000866435       -2.1354631702
  O        16.7777383470       -1.2478435633        0.0003292440
  O        16.7784312484        1.2483493442        0.0021836165
  O        12.2263885331        0.0001678913        2.1448688134
  O        12.2263617607       -0.0001797521       -2.1447097909
  O        13.7442503083       -1.2685181737        0.0011298205
  O        13.7440592960        1.2684541476       -0.0002163118
  O         9.2379811226       -0.0059161606        2.1527986688
  O         9.2396444606        0.0059408951       -2.1556181495
  O        10.7343870539       -1.2611568341        0.0016158028
  O        10.7343253552        1.2608214429        0.0014898241
  O         6.1224904585       -0.0019383768        2.2625257977
  O         6.1223313424        0.0022144526       -2.2632283156
  O         7.7558763690       -1.2901821806       -0.0240022514
  O         7.7569192154        1.2912688050        0.0184401105
  O         3.0072830415       -0.0013721682        2.1506602403
  O         3.0085412365        0.0013706426       -2.1505688654
  O         4.4815171530       -1.3281075282       -0.0169918888
  O         4.4799461791        1.3232390396        0.0350491232
  O        -0.0331132486        0.0001941143        2.1453629588
  O        -0.0330732857       -0.0001961924       -2.1457390876
  O         1.5082273674       -1.2611760358       -0.0011492584
  O         1.5088941656        1.2609399490       -0.0036348528
  H        18.3824799586       -0.8130332062       -2.6978610886
  H        18.3824538297        0.8129796271       -2.6978285227
  H        18.3824735750       -0.8128548122        2.6979826831
  H        18.3825454935        0.8129207737        2.6980161196
  H        19.8705502345       -2.2351812587       -0.0000768810
  H        19.8705696914        2.2349187441       -0.0001099058
  H        15.2182690357       -0.8117051196       -2.7006970254
  H        15.2184271028        0.8115900815       -2.7006341592
  H        15.2184773128       -0.8147567055        2.7006083945
  H        15.2183045965        0.8148948456        2.7006830473
  H        16.8116260514       -2.2365197532        0.0000597709
  H        16.8116962363        2.2370031146        0.0000106814
  H        12.0796921068       -0.8115512193       -2.6920179502
  H        12.0801574847        0.8113413415       -2.6919326901
  H        12.0804398736       -0.8114411516        2.6919850239
  H        12.0799326809        0.8116152333        2.6920801339
  H        13.7549279170       -2.2527741973        0.0001719365
  H        13.7549429705        2.2526926933        0.0001323661
  H         9.0399602921       -0.8103256199       -2.6772619752
  H         9.0420155530        0.8175457550       -2.6837540523
  H         9.0434113305       -0.8161963804        2.6841096685
  H         9.0414255478        0.8090943248        2.6774720175
  H        10.7002240891       -2.2462665268       -0.0008832970
  H        10.6999791643        2.2459535655        0.0004749038
  H         6.1154834410       -0.8112908523       -2.8286756539
  H         6.1144605589        0.8122172671       -2.8330749865
  H         6.1130866375       -0.8117894263        2.8327980311
  H         6.1141466773        0.8110925800        2.8288058662
  H         7.7416767113       -2.2760323160       -0.0050897200
  H         7.7422822483        2.2772860102        0.0019785105
  H         3.1907214013       -0.8117190831       -2.6855396950
  H         3.1888035677        0.8132587320       -2.6877071959
  H         3.1888001045       -0.8132213609        2.6872322255
  H         3.1907878829        0.8116612159        2.6850942068
  H         4.5069256472       -2.3117242394       -0.0010126573
  H         4.5065753746        2.3071962667        0.0024438688
  H         0.1338507419       -0.8119169796       -2.6878486690
  H         0.1336564543        0.8116798340       -2.6877001967
  H         0.1338576017       -0.8115146399        2.6875663953
  H         0.1341564341        0.8117321996        2.6877042887
  H         1.5455331301       -2.2456261672       -0.0003496523
  H         1.5453857141        2.2456200644        0.0002798465
      77
 i =        6, E =     -1335.5287064664
 Fe        18.3446773184        0.0014437282       -0.0011463192
 Fe        15.2620553187       -0.0017552465       -0.0425356681
 Fe        12.2068589166       -0.0001119192       -0.0003084507
 Fe         9.1161003506        0.0010277442       -0.0061420438
 Fe         6.1507458860        0.0012938930       -0.0028530012
 Fe         3.2002968266        0.0220462511       -0.0002088181
 Fe         0.0553299570       -0.0022717066       -0.0013241016
  O        18.3006035395       -0.0000388114        2.1327811883
  O        18.3006325601       -0.0000298884       -2.1330195129
  O        19.8718884296       -1.2502704597       -0.0007611003
  O        19.8738876633        1.2500329468       -0.0013356148
  O        15.2391438979        0.0001738129        2.1153617002
  O        15.2422713707       -0.0000612133       -2.1444202323
  O        16.7894052622       -1.2823535004        0.0007549205
  O        16.7875867471        1.2847571272       -0.0011433305
  O        12.2194361499        0.0003585520        2.1379365061
  O        12.2208449869       -0.0004087456       -2.1379048352
  O        13.7610557509       -1.2710506935        0.0028659665
  O        13.7621797427        1.2704681096        0.0004975711
  O         9.2853020497       -0.0105383082        2.1679315124
  O         9.2898644413        0.0106725404       -2.1766393340
  O        10.7205633592       -1.2382835659        0.0034295672
  O        10.7218322732        1.2381126338        0.0037889038
  O         6.1257568158       -0.0063537197        2.2541584147
  O         6.1254372120        0.0072081062       -2.2550107174
  O         7.7562516020       -1.2945355183       -0.0060461461
  O         7.7555001058        1.2951218736        0.0155217759
  O         2.9995318406       -0.0039401859        2.1382694713
  O         3.0014503087        0.0035975971       -2.1399185580
  O         4.5388174380       -1.3286117216       -0.0366851806
  O         4.5547325489        1.3306150135        0.0559377291
  O        -0.0599572785        0.0004131860        2.1436949386
  O        -0.0602209246       -0.0004160752       -2.1445715856
  O         1.5599162252       -1.2424642983       -0.0015364544
  O         1.5462091247        1.2500179901       -0.0072141689
  H        18.3849200036       -0.8162828357       -2.7003524634
  H        18.3849580795        0.8162190411       -2.7003340563
  H        18.3849246783       -0.8164032715        2.7001847018
  H        18.3849091073        0.8164393397        2.7000299028
  H        19.8711630849       -2.2478854832       -0.0002240063
  H        19.8706334909        2.2478020074       -0.0002674805
  H        15.2191394148       -0.8239043956       -2.7051134632
  H        15.2191731344        0.8237709404       -2.7051306360
  H        15.2196980079       -0.8087485909        2.7017929646
  H        15.2196499273        0.8089893119        2.7019437324
  H        16.7941220210       -2.2753769801       -0.0000265112
  H        16.7946209790        2.2775618284        0.0002663320
  H        12.0744731358       -0.8194730520       -2.6900123185
  H        12.0749582593        0.8190067148       -2.6896674236
  H        12.0759298101       -0.8192913221        2.6899748434
  H        12.0753296219        0.8196937995        2.6902538062
  H        13.7436085845       -2.2680253947        0.0001744482
  H        13.7435154335        2.2676262950        0.0000241377
  H         9.0326547643       -0.8257618796       -2.6704631399
  H         9.0363322108        0.8391070159       -2.6821552284
  H         9.0380308825       -0.8348425322        2.6830486497
  H         9.0343910830        0.8220961152        2.6707258032
  H        10.7072951236       -2.2371942892       -0.0017081143
  H        10.7066251899        2.2367171212        0.0005921723
  H         6.1169463022       -0.8173726890       -2.8198447310
  H         6.1156061911        0.8223069247       -2.8318084413
  H         6.1134028982       -0.8222471108        2.8300268214
  H         6.1148141429        0.8179253915        2.8195047205
  H         7.7447564935       -2.2846901008       -0.0092447178
  H         7.7469644942        2.2857173194        0.0052507424
  H         3.1936056012       -0.8142683095       -2.6804783101
  H         3.1895972068        0.8176644812       -2.6865899586
  H         3.1904684813       -0.8159754115        2.6871155672
  H         3.1944404682        0.8121155767        2.6805080025
  H         4.4984354484       -2.3228337754       -0.0035566233
  H         4.4975093257        2.3235081882        0.0064037520
  H         0.1394277190       -0.8159424388       -2.6886395994