 DBCSR| Multiplication driver                                               BLAS
 DBCSR| Multrec recursion limit                                              512
 DBCSR| Multiplication stack size                                           1000
 DBCSR| Maximum elements for images                                    UNLIMITED
 DBCSR| Multiplicative factor virtual images                                   1
 DBCSR| Multiplication size stacks                                             3
 DBCSR| Number of 3D layers                                               SINGLE
 DBCSR| Use MPI memory allocation                                              T
 DBCSR| Use RMA algorithm                                                      F
 DBCSR| Use Communication thread                                               T
 DBCSR| Communication thread load                                             87


  **** **** ******  **  PROGRAM STARTED AT               2019-07-25 12:55:40.337
 ***** ** ***  *** **   PROGRAM STARTED ON        cpn-u28-40.cbls.ccr.buffalo.ed
 **    ****   ******    PROGRAM STARTED BY                              pavankum
 ***** **    ** ** **   PROGRAM PROCESS ID                                 33566
  **** **  *******  **  PROGRAM STARTED IN /projects/academic/mdupuis2/pavan/VAB
                                           _calculation/results_for_paper/2.Zn2+
                                           /gpw_pseudo/r_7

 CP2K| version string:                                          CP2K version 6.1
 CP2K| source code revision number:                                    svn:18464
 CP2K| cp2kflags: libint fftw3 libxc parallel mpi3 scalapack libderiv_max_am1=5 
 CP2K|            libint_max_am=6
 CP2K| is freely available from                            https://www.cp2k.org/
 CP2K| Program compiled at                          Fri Nov 30 14:17:09 EST 2018
 CP2K| Program compiled on                       srv-p22-12.cbls.ccr.buffalo.edu
 CP2K| Program compiled for                                                local
 CP2K| Data directory path    /projects/academic/mdupuis2/pavan/cp2k/cp2k-6.1/da
 CP2K| Input file name                                                 input.inp

 GLOBAL| Force Environment number                                              3
 GLOBAL| Basis set file name                                           BASIS_SET
 GLOBAL| Potential file name                                           POTENTIAL
 GLOBAL| MM Potential file name                                     MM_POTENTIAL
 GLOBAL| Coordinate file name                                     ./geometry.xyz
 GLOBAL| Force Environment number                                              1
 GLOBAL| Basis set file name            /projects/academic/mdupuis2/pavan/BASIS_
 GLOBAL| Potential file name            /projects/academic/mdupuis2/pavan/POTENT
 GLOBAL| MM Potential file name                                     MM_POTENTIAL
 GLOBAL| Coordinate file name                                       ./state0.xyz
 GLOBAL| Force Environment number                                              2
 GLOBAL| Basis set file name            /projects/academic/mdupuis2/pavan/BASIS_
 GLOBAL| Potential file name            /projects/academic/mdupuis2/pavan/POTENT
 GLOBAL| MM Potential file name                                     MM_POTENTIAL
 GLOBAL| Coordinate file name                                       ./state1.xyz
 GLOBAL| Method name                                                        CP2K
 GLOBAL| Project name                                                      p_zn_
 GLOBAL| Preferred FFT library                                             FFTW3
 GLOBAL| Preferred diagonalization lib.                                       SL
 GLOBAL| Run type                                                         ENERGY
 GLOBAL| All-to-all communication in single precision                          F
 GLOBAL| FFTs using library dependent lengths                                  T
 GLOBAL| Global print level                                               MEDIUM
 GLOBAL| Total number of message passing processes                            16
 GLOBAL| Number of threads for this process                                    1
 GLOBAL| This output is from process                                           0
 GLOBAL| CPU model name :  Intel(R) Xeon(R) Gold 5118 CPU @ 2.30GHz

 MEMORY| system memory details [Kb]
 MEMORY|                        rank 0           min           max       average
 MEMORY| MemTotal             97288368      97288368      97288368      97288368
 MEMORY| MemFree              93084724      93084724      93084724      93084724
 MEMORY| Buffers                323012        323012        323012        323012
 MEMORY| Cached                 617788        617788        617788        617788
 MEMORY| Slab                   423084        423084        423084        423084
 MEMORY| SReclaimable           159980        159980        159980        159980
 MEMORY| MemLikelyFree        94185504      94185504      94185504      94185504


 *** Fundamental physical constants (SI units) ***

 *** Literature: B. J. Mohr and B. N. Taylor,
 ***             CODATA recommended values of the fundamental physical
 ***             constants: 2006, Web Version 5.1
 ***             http://physics.nist.gov/constants

 Speed of light in vacuum [m/s]                             2.99792458000000E+08
 Magnetic constant or permeability of vacuum [N/A**2]       1.25663706143592E-06
 Electric constant or permittivity of vacuum [F/m]          8.85418781762039E-12
 Planck constant (h) [J*s]                                  6.62606896000000E-34
 Planck constant (h-bar) [J*s]                              1.05457162825177E-34
 Elementary charge [C]                                      1.60217648700000E-19
 Electron mass [kg]                                         9.10938215000000E-31
 Electron g factor [ ]                                     -2.00231930436220E+00
 Proton mass [kg]                                           1.67262163700000E-27
 Fine-structure constant                                    7.29735253760000E-03
 Rydberg constant [1/m]                                     1.09737315685270E+07
 Avogadro constant [1/mol]                                  6.02214179000000E+23
 Boltzmann constant [J/K]                                   1.38065040000000E-23
 Atomic mass unit [kg]                                      1.66053878200000E-27
 Bohr radius [m]                                            5.29177208590000E-11

 *** Conversion factors ***

 [u] -> [a.u.]                                              1.82288848426455E+03
 [Angstrom] -> [Bohr] = [a.u.]                              1.88972613288564E+00
 [a.u.] = [Bohr] -> [Angstrom]                              5.29177208590000E-01
 [a.u.] -> [s]                                              2.41888432650478E-17
 [a.u.] -> [fs]                                             2.41888432650478E-02
 [a.u.] -> [J]                                              4.35974393937059E-18
 [a.u.] -> [N]                                              8.23872205491840E-08
 [a.u.] -> [K]                                              3.15774647902944E+05
 [a.u.] -> [kJ/mol]                                         2.62549961709828E+03
 [a.u.] -> [kcal/mol]                                       6.27509468713739E+02
 [a.u.] -> [Pa]                                             2.94210107994716E+13
 [a.u.] -> [bar]                                            2.94210107994716E+08
 [a.u.] -> [atm]                                            2.90362800883016E+08
 [a.u.] -> [eV]                                             2.72113838565563E+01
 [a.u.] -> [Hz]                                             6.57968392072181E+15
 [a.u.] -> [1/cm] (wave numbers)                            2.19474631370540E+05
 [a.u./Bohr**2] -> [1/cm]                                   5.14048714338585E+03
 
 MIXED_ENV| Number of created MPI groups:                                      1
 MIXED_ENV| Task to group correspondence:
  (   0 :    0)  (   1 :    0)  (   2 :    0)  (   3 :    0)
  (   4 :    0)  (   5 :    0)  (   6 :    0)  (   7 :    0)
  (   8 :    0)  (   9 :    0)  (  10 :    0)  (  11 :    0)
  (  12 :    0)  (  13 :    0)  (  14 :    0)  (  15 :    0)
          ----------------------------------------------------------------------
 COLVARS| COLVAR INPUT INDEX:        1
 COLVARS| ENERGY          >>> ATOMS:                                        all!
          ----------------------------------------------------------------------

 CELL_TOP| Volume [angstrom^3]:                                         8000.000
 CELL_TOP| Vector a [angstrom    20.000     0.000     0.000    |a| =      20.000
 CELL_TOP| Vector b [angstrom     0.000    20.000     0.000    |b| =      20.000
 CELL_TOP| Vector c [angstrom     0.000     0.000    20.000    |c| =      20.000
 CELL_TOP| Angle (b,c), alpha [degree]:                                   90.000
 CELL_TOP| Angle (a,c), beta  [degree]:                                   90.000
 CELL_TOP| Angle (a,b), gamma [degree]:                                   90.000
 CELL_TOP| Numerically orthorhombic:                                         YES

 GENERATE|  Preliminary Number of Bonds generated:                             0
 GENERATE|  Achieved consistency in connectivity generation.

 CELL| Volume [angstrom^3]:                                             8000.000
 CELL| Vector a [angstrom]:      20.000     0.000     0.000    |a| =      20.000
 CELL| Vector b [angstrom]:       0.000    20.000     0.000    |b| =      20.000
 CELL| Vector c [angstrom]:       0.000     0.000    20.000    |c| =      20.000
 CELL| Angle (b,c), alpha [degree]:                                       90.000
 CELL| Angle (a,c), beta  [degree]:                                       90.000
 CELL| Angle (a,b), gamma [degree]:                                       90.000
 CELL| Numerically orthorhombic:                                             YES

 CELL_REF| Volume [angstrom^3]:                                         8000.000
 CELL_REF| Vector a [angstrom    20.000     0.000     0.000    |a| =      20.000
 CELL_REF| Vector b [angstrom     0.000    20.000     0.000    |b| =      20.000
 CELL_REF| Vector c [angstrom     0.000     0.000    20.000    |c| =      20.000
 CELL_REF| Angle (b,c), alpha [degree]:                                   90.000
 CELL_REF| Angle (a,c), beta  [degree]:                                   90.000
 CELL_REF| Angle (a,b), gamma [degree]:                                   90.000
 CELL_REF| Numerically orthorhombic:                                         YES


 MOLECULE KIND INFORMATION


 All atoms are their own molecule, skipping detailed information
 nspins, nimgs, gapw_xc           2           1 F 

 ####### CHECKS ON A and B #######
  E_A before:  -116.03160598677050     
  E_B before:  -116.03160598677069     
 ####### - #######
##Inside build_kohn_sham_matrix() before doing any function calls
 i). ELECTRON ONLY CALLS
 1. Electron_pw   122.46854271654216     
 2. Electron_1c   0.0000000000000000     
 ########## After 1st poisson call pure hartree  (sum of above two quantities) ##########   122.46854271654216     
 ########################
 1. Nuclear_pw   170.18651946713521     
 2. Nuclear_1c   0.0000000000000000     
 1. Hartree_pw   6.0453042325654316     
 2. Hartree_1c   0.0000000000000000     
 Regular: Before call to qs_vxc Regular_exc, exc1   0.0000000000000000        0.0000000000000000     
 Regular: After call to qs_vxc_create Regular_exc, exc1   0.0000000000000000        0.0000000000000000     
 iv). EXCHANGE ENERGY   -12.837558804851957     
 v). POTENTIAL ENERGY FROM CORE HAMILTONIAN   -117.64146700167177     
 vi). KINETIC ENERGY    167.70270388302299     
 vii). SELF ENERGY   -159.30058829583706     
      
 E_NUC is    10.885931171298154     
      
IN build_kohn_sham_matrix() CALLING qs_ks_atom(),updates single atom contributions due to gapw
Inside build_kohn_sham_matrix() after doing all function calls and evaluating energy
 CHECK ON A IS DONE, E_A after passing modified PA_hat density:  -116.03160598677236     
##Inside build_kohn_sham_matrix() before doing any function calls
 i). ELECTRON ONLY CALLS
 1. Electron_pw   122.46854271686809     
 2. Electron_1c   0.0000000000000000     
 ########## After 1st poisson call pure hartree  (sum of above two quantities) ##########   122.46854271686809     
 ########################
 1. Nuclear_pw   170.18651946713521     
 2. Nuclear_1c   0.0000000000000000     
 1. Hartree_pw   6.0453042326363384     
 2. Hartree_1c   0.0000000000000000     
 Regular: Before call to qs_vxc Regular_exc, exc1   0.0000000000000000        0.0000000000000000     
 Regular: After call to qs_vxc_create Regular_exc, exc1   0.0000000000000000        0.0000000000000000     
 iv). EXCHANGE ENERGY   -12.837558805046134     
 v). POTENTIAL ENERGY FROM CORE HAMILTONIAN   -117.64146700189234     
 vi). KINETIC ENERGY    167.70270388336667     
 vii). SELF ENERGY   -159.30058829583706     
      
 E_NUC is    10.885931171298154     
      
IN build_kohn_sham_matrix() CALLING qs_ks_atom(),updates single atom contributions due to gapw
Inside build_kohn_sham_matrix() after doing all function calls and evaluating energy
 CHECK ON B IS DONE, E_B after passing modified PB_hat density:  -116.03160598677252     
 DOING ANTI-SYMMETRIC PART OF VAB
##Inside build_kohn_sham_matrix() before doing any function calls
 i). ELECTRON ONLY CALLS
 1. Electron_pw   1.0262541755675797E-007
 2. Electron_1c   0.0000000000000000     
 ########## After 1st poisson call pure hartree  (sum of above two quantities) ##########   1.0262541755675797E-007
 ########################
 1. Nuclear_pw   170.18651946713521     
 2. Nuclear_1c   0.0000000000000000     
 1. Hartree_pw   170.18357816525833     
 2. Hartree_1c   0.0000000000000000     
 Regular: Before call to qs_vxc Regular_exc, exc1   0.0000000000000000        0.0000000000000000     
 Regular: After call to qs_vxc_create Regular_exc, exc1   0.0000000000000000        0.0000000000000000     
 iv). EXCHANGE ENERGY   -1.8866775845076830E-002
 v). POTENTIAL ENERGY FROM CORE HAMILTONIAN    8.4291772487740451E-007
 vi). KINETIC ENERGY   -3.3838667220392168E-004
 vii). SELF ENERGY   -159.30058829583706     
      
 E_NUC is    10.885931171298154     
      
IN build_kohn_sham_matrix() CALLING qs_ks_atom(),updates single atom contributions due to gapw
Inside build_kohn_sham_matrix() after doing all function calls and evaluating energy
 DOING SYMMETRIC PART OF VAB
##Inside build_kohn_sham_matrix() before doing any function calls
 i). ELECTRON ONLY CALLS
 1. Electron_pw  0.13011054620236207     
 2. Electron_1c   0.0000000000000000     
 ########## After 1st poisson call pure hartree  (sum of above two quantities) ##########  0.13011054620236207     
 ########################
 ehartree, ehartree_1c after multiplying with DTPROD/DHPROD  -3.9898107095159707       -0.0000000000000000     
 dtprod, dhprod are  -1.0000000000000002        3.2610706541049569E-002
 J2_AB is   -3.9898107095159707     
 1. Nuclear_pw   170.18651946713521     
 2. Nuclear_1c   0.0000000000000000     
 1. Hartree_pw   160.97246299476859     
 2. Hartree_1c   0.0000000000000000     
 Regular: Before call to qs_vxc Regular_exc, exc1   0.0000000000000000        0.0000000000000000     
 Regular: After call to qs_vxc_create Regular_exc, exc1   0.0000000000000000        0.0000000000000000     
 iv). EXCHANGE ENERGY   -3.2447332767746355E-002
 v). POTENTIAL ENERGY FROM CORE HAMILTONIAN   -3.8371180631734414     
 vi). KINETIC ENERGY    5.4687922961716326     
 vii). SELF ENERGY   -159.30058829583706     
      
 E_NUC is    10.885931171298154     
      
IN build_kohn_sham_matrix() CALLING qs_ks_atom(),updates single atom contributions due to gapw
 ########################
 #########  ET  #########
 ------------------------
 E_NUC   10.885931171298154     
 HAA <a|H|a>  -126.91753715807050     
 HBB <b|H|b>  -126.91753715807073     
             
 <a|H1|b>   7.7124927855708014     
 <a|H2|b>  -3.5733659782258145     
 ...<a|J2|b>  -3.9898107095159707     
 ...<a|K2|b>  0.41644473129015624     
 HAB <a|H|b>   4.1391268073449865     
 SAB  -3.2610706541049576E-002
 VAB   2.5652096892976828E-004
  VAB in different units 
 ------------------------
          6.9802905528036753E-003 eV
          56.299845094674637      1/cm
         0.16096933692705245      kcal/mol
         0.67349570570278738      kJ/mol
          1687826894595.1750      Hertz
 ------------------------
 ------------------------
 E+  -126.91727226311237     
 E-  -126.91778532236877     
 (E+ - E-)/2   2.5652962820024895E-004
          6.9805261835366433E-003 eV
          56.301745584871327      1/cm
         0.16097477070127122      kcal/mol
         0.67351844061411881      kJ/mol
          1687883869857.9219      Hertz
 ------------------------
 ------------------------
Inside build_kohn_sham_matrix() after doing all function calls and evaluating energy
 NO FORCE_EVAL section calculated the dipole

 ENERGY| Total FORCE_EVAL ( MIXED ) energy (a.u.):             0.000000000000185


 -------------------------------------------------------------------------------
 -                                                                             -
 -                                DBCSR STATISTICS                             -
 -                                                                             -
 -------------------------------------------------------------------------------
 COUNTER                                    TOTAL       BLAS       SMM       ACC
 flops    25 x    12 x    25               120000     100.0%      0.0%      0.0%
 flops    25 x    11 x    25               220000     100.0%      0.0%      0.0%
 flops    25 x    25 x    11              2970000     100.0%      0.0%      0.0%
 flops    25 x    25 x    12              3240000     100.0%      0.0%      0.0%
 flops inhomo. stacks                           0       0.0%      0.0%      0.0%
 flops total                         6.550000E+06     100.0%      0.0%      0.0%
 flops max/rank                      2.240000E+06     100.0%      0.0%      0.0%
 matmuls inhomo. stacks                         0       0.0%      0.0%      0.0%
 matmuls total                                456     100.0%      0.0%      0.0%
 number of processed stacks                   456     100.0%      0.0%      0.0%
 average stack size                                     1.0       0.0       0.0
 marketing flops                     8.620000E+06
 -------------------------------------------------------------------------------
 # multiplications                            150
 max memory usage/rank             508.973056E+06
 # max total images/rank                        1
 # max 3D layers                                1
 # MPI messages exchanged                   14400
 MPI messages size (bytes):
  total size                         4.416000E+06
  min size                           0.000000E+00
  max size                           5.000000E+03
  average size                     306.666656E+00
 MPI breakdown and total messages size (bytes):
             size <=      128               12564                        0
       128 < size <=     8192                1836                  4416000
      8192 < size <=    32768                   0                        0
     32768 < size <=   131072                   0                        0
    131072 < size <=  4194304                   0                        0
   4194304 < size <= 16777216                   0                        0
  16777216 < size                               0                        0
 -------------------------------------------------------------------------------

 MEMORY| Estimated peak process memory [MiB]                                 490

 -------------------------------------------------------------------------------
 -                                                                             -
 -                         MESSAGE PASSING PERFORMANCE                         -
 -                                                                             -
 -------------------------------------------------------------------------------

 ROUTINE             CALLS      AVE VOLUME [Bytes]
 MP_Group              295
 MP_Bcast              440                1581528.
 MP_Allreduce         3036                    538.
 MP_Sync               821
 MP_Alltoall          7034                4681687.
 MP_ISendRecv        13260                  79105.
 MP_Wait             34076
 MP_comm_split         141
 MP_ISend            14240                 462381.
 MP_IRecv            14240                 462268.
 MP_Recv                24                   1200.
 MP_Memory            5936
 -------------------------------------------------------------------------------


 -------------------------------------------------------------------------------
 -                                                                             -
 -                           R E F E R E N C E S                               -
 -                                                                             -
 -------------------------------------------------------------------------------
 
 CP2K version 6.1, the CP2K developers group (2018).
 CP2K is freely available from https://www.cp2k.org/ .

 Schuett, Ole; Messmer, Peter; Hutter, Juerg; VandeVondele, Joost. 
 Electronic Structure Calculations on Graphics Processing Units, John Wiley & Sons, Ltd, 173-190 (2016). 
 GPU-Accelerated Sparse Matrix-Matrix Multiplication for Linear Scaling Density Functional Theory.
 http://dx.doi.org/10.1002/9781118670712.ch8


 Borstnik, U; VandeVondele, J; Weber, V; Hutter, J. 
 PARALLEL COMPUTING, 40 (5-6), 47-58 (2014). 
 Sparse matrix multiplication: The distributed block-compressed sparse
 row library.
 http://dx.doi.org/10.1016/j.parco.2014.03.012


 Hutter, J; Iannuzzi, M; Schiffmann, F; VandeVondele, J. 
 WILEY INTERDISCIPLINARY REVIEWS-COMPUTATIONAL MOLECULAR SCIENCE, 4 (1), 15-25 (2014). 
 CP2K: atomistic simulations of condensed matter systems.
 http://dx.doi.org/10.1002/wcms.1159


 Guidon, M; Hutter, J; VandeVondele, J. 
 JOURNAL OF CHEMICAL THEORY AND COMPUTATION, 5 (11), 3010-3021 (2009). 
 Robust Periodic Hartree-Fock Exchange for Large-Scale Simulations Using
 Gaussian Basis Sets.
 http://dx.doi.org/10.1021/ct900494g


 Guidon, M; Schiffmann, F; Hutter, J; VandeVondele, J. 
 JOURNAL OF CHEMICAL PHYSICS, 128 (21), 214104 (2008). 
 Ab initio molecular dynamics using hybrid density functionals.
 http://dx.doi.org/10.1063/1.2931945


 VandeVondele, J; Hutter, J. 
 JOURNAL OF CHEMICAL PHYSICS, 127 (11), 114105 (2007). 
 Gaussian basis sets for accurate calculations on molecular systems in
 gas and condensed phases.
 http://dx.doi.org/10.1063/1.2770708


 Genovese, L; Deutsch, T; Goedecker, S. 
 JOURNAL OF CHEMICAL PHYSICS, 127 (5), 054704 (2007). 
 Efficient and accurate three-dimensional Poisson solver for surface
 problems.
 http://dx.doi.org/10.1063/1.2754685


 Genovese, L; Deutsch, T; Neelov, A; Goedecker, S; Beylkin, G. 
 JOURNAL OF CHEMICAL PHYSICS, 125 (7), 074105 (2006). 
 Efficient solution of Poisson's equation with free boundary conditions.
 http://dx.doi.org/10.1063/1.2335442


 Krack, M. 
 THEORETICAL CHEMISTRY ACCOUNTS, 114 (1-3), 145-152 (2005). 
 Pseudopotentials for H to Kr optimized for gradient-corrected
 exchange-correlation functionals.
 http://dx.doi.org/10.1007/s00214-005-0655-y


 VandeVondele, J; Krack, M; Mohamed, F; Parrinello, M; Chassaing, T;
 Hutter, J. COMPUTER PHYSICS COMMUNICATIONS, 167 (2), 103-128 (2005). 
 QUICKSTEP: Fast and accurate density functional calculations using a
 mixed Gaussian and plane waves approach.
 http://dx.doi.org/10.1016/j.cpc.2004.12.014


 Frigo, M; Johnson, SG. 
 PROCEEDINGS OF THE IEEE, 93 (2), 216-231 (2005). 
 The design and implementation of FFTW3.
 http://dx.doi.org/10.1109/JPROC.2004.840301


 Hartwigsen, C; Goedecker, S; Hutter, J. 
 PHYSICAL REVIEW B, 58 (7), 3641-3662 (1998). 
 Relativistic separable dual-space Gaussian pseudopotentials from H to Rn.
 http://dx.doi.org/10.1103/PhysRevB.58.3641


 Lippert, G; Hutter, J; Parrinello, M. 
 MOLECULAR PHYSICS, 92 (3), 477-487 (1997). 
 A hybrid Gaussian and plane wave density functional scheme.
 http://dx.doi.org/10.1080/002689797170220


 Goedecker, S; Teter, M; Hutter, J. 
 PHYSICAL REVIEW B, 54 (3), 1703-1710 (1996). 
 Separable dual-space Gaussian pseudopotentials.
 http://dx.doi.org/10.1103/PhysRevB.54.1703


 -------------------------------------------------------------------------------
 -                                                                             -
 -                                T I M I N G                                  -
 -                                                                             -
 -------------------------------------------------------------------------------
 SUBROUTINE                       CALLS  ASD         SELF TIME        TOTAL TIME
                                MAXIMUM       AVERAGE  MAXIMUM  AVERAGE  MAXIMUM
 CP2K                                 1  1.0    0.053    0.068  170.720  170.721
 qs_energies                          2  2.0    0.000    0.000  162.024  162.025
 scf_env_do_scf                       2  3.0    0.000    0.000  159.830  159.833
 scf_env_do_scf_inner_loop           70  4.0    0.003    0.005  159.830  159.832
 qs_ks_update_qs_env                 74  4.8    0.002    0.002  117.716  117.831
 rebuild_ks_matrix                   74  5.8    0.000    0.000  117.709  117.825
 qs_ks_build_kohn_sham_matrix        74  6.8    0.017    0.020  117.709  117.825
 pw_transfer                       1556  9.1    0.083    0.098   73.654   76.471
 fft_wrap_pw1pw2                   1556 10.1    0.015    0.018   73.572   76.382
 fft_wrap_pw1pw2_140                680 10.7    5.500    6.840   67.659   72.379
 fft3d_ps                          1556 12.1   31.532   35.470   57.221   59.041
 qs_rho_update_rho                   76  4.8    0.001    0.001   50.560   50.561
 calculate_rho_elec                 152  5.8    0.680    0.999   50.560   50.560
 density_rs2pw                      152  6.8    0.011    0.014   46.967   47.817
 hfx_ks_matrix                       74  7.8    0.001    0.002   42.223   43.609
 integrate_four_center               74  8.8    0.092    0.131   42.219   43.606
 pw_poisson_solve                    82  7.6    1.428    1.741   37.254   37.292
 sum_up_and_integrate                70  8.0    0.001    0.001   29.176   29.292
 integrate_v_rspace                 140  9.0    0.119    0.404   29.175   29.291
 mp_alltoall_z22v                  1556 14.1   11.447   29.258   11.447   29.258
 potential_pw2rs                    140 10.0    0.030    0.038   29.016   29.096
 rs_pw_transfer                    1176  9.3    0.019    0.023   24.473   25.590
 yz_to_x                            832 12.4    6.745    8.759   13.652   21.191
 calc_screening_functions             2 10.0   19.650   20.112   19.922   20.387
 mp_sync                            821 10.6   13.287   19.410   13.287   19.410
 integrate_four_center_main          74  9.8    0.007    0.010    4.743   17.454
 integrate_four_center_bin         9472 10.8    4.736   17.451    4.736   17.451
 ps_wavelet_solve                    82  8.6   11.968   12.979   14.803   14.928
 mp_waitany                       11840 11.3    6.562   14.705    6.562   14.705
 x_to_yz                            724 13.8    7.464    9.368   12.003   13.488
 rs_pw_transfer_RS2PW_140           156  8.8    5.976    7.305    9.277   10.586
 rs_pw_transfer_PW2RS_140           144 11.9    5.367    6.542    8.492    9.433
 pw_gather_p                        832 11.4    6.040    7.245    6.040    7.245
 fft_wrap_pw1pw2_50                 292 11.4    0.269    0.344    5.000    7.216
 mp_sum_d                          1691  6.6    2.058    6.588    2.058    6.588
 mp_alltoall_d54                     82  9.6    1.122    5.818    1.122    5.818
 pw_scatter_p                       724 12.8    4.463    5.164    4.463    5.164
 mp_waitall_1                     22236 11.4    1.528    5.026    1.528    5.026
 rs_pw_transfer_PW2RS_50            140 12.0    1.289    1.612    3.002    4.892
 rs_grid_zero                       896  8.8    3.043    3.682    3.043    3.682
 calc_pair_dist_radii                 2 10.0    3.436    3.527    3.555    3.649
 -------------------------------------------------------------------------------

 The number of warnings for this run is : 0
 
 -------------------------------------------------------------------------------
  **** **** ******  **  PROGRAM ENDED AT                 2019-07-25 12:58:31.211
 ***** ** ***  *** **   PROGRAM RAN ON            cpn-u28-40.cbls.ccr.buffalo.ed
 **    ****   ******    PROGRAM RAN BY                                  pavankum
 ***** **    ** ** **   PROGRAM PROCESS ID                                 33566
  **** **  *******  **  PROGRAM STOPPED IN /projects/academic/mdupuis2/pavan/VAB
                                           _calculation/results_for_paper/2.Zn2+
                                           /gpw_pseudo/r_7
