 DBCSR| Multiplication driver                                               BLAS
 DBCSR| Multrec recursion limit                                              512
 DBCSR| Multiplication stack size                                           1000
 DBCSR| Maximum elements for images                                    UNLIMITED
 DBCSR| Multiplicative factor virtual images                                   1
 DBCSR| Multiplication size stacks                                             3
 DBCSR| Number of 3D layers                                               SINGLE
 DBCSR| Use MPI memory allocation                                              T
 DBCSR| Use RMA algorithm                                                      F
 DBCSR| Use Communication thread                                               T
 DBCSR| Communication thread load                                             87


  **** **** ******  **  PROGRAM STARTED AT               2019-08-08 08:34:25.582
 ***** ** ***  *** **   PROGRAM STARTED ON        cpn-p28-14.cbls.ccr.buffalo.ed
 **    ****   ******    PROGRAM STARTED BY                              pavankum
 ***** **    ** ** **   PROGRAM PROCESS ID                                 52103
  **** **  *******  **  PROGRAM STARTED IN /projects/academic/mdupuis2/pavan/VAB
                                           _calculation/results_for_paper/3.1D_F
                                           e_7units/blyp_plusU7/point_0.4

 CP2K| version string:                                          CP2K version 6.1
 CP2K| source code revision number:                                    svn:18464
 CP2K| cp2kflags: libint fftw3 libxc parallel mpi3 scalapack libderiv_max_am1=5 
 CP2K|            libint_max_am=6
 CP2K| is freely available from                            https://www.cp2k.org/
 CP2K| Program compiled at                          Fri Nov 30 14:17:09 EST 2018
 CP2K| Program compiled on                       srv-p22-12.cbls.ccr.buffalo.edu
 CP2K| Program compiled for                                                local
 CP2K| Data directory path    /projects/academic/mdupuis2/pavan/cp2k/cp2k-6.1/da
 CP2K| Input file name                                                 input.inp

 GLOBAL| Force Environment number                                              1
 GLOBAL| Basis set file name            /projects/academic/mdupuis2/pavan/BASIS_
 GLOBAL| Potential file name            /projects/academic/mdupuis2/pavan/POTENT
 GLOBAL| MM Potential file name                                     MM_POTENTIAL
 GLOBAL| Coordinate file name                             intermediate_point.xyz
 GLOBAL| Method name                                                        CP2K
 GLOBAL| Project name                                                      p_fe_
 GLOBAL| Preferred FFT library                                             FFTW3
 GLOBAL| Preferred diagonalization lib.                                       SL
 GLOBAL| Run type                                                         ENERGY
 GLOBAL| All-to-all communication in single precision                          F
 GLOBAL| FFTs using library dependent lengths                                  T
 GLOBAL| Global print level                                               MEDIUM
 GLOBAL| Total number of message passing processes                            40
 GLOBAL| Number of threads for this process                                    1
 GLOBAL| This output is from process                                           0
 GLOBAL| CPU model name :  Intel(R) Xeon(R) CPU E5-2650 v3 @ 2.30GHz

 MEMORY| system memory details [Kb]
 MEMORY|                        rank 0           min           max       average
 MEMORY| MemTotal             65684716      65684716      65684716      65684716
 MEMORY| MemFree              60304080      60304080      60342220      60323150
 MEMORY| Buffers                507904        507904        509928        508916
 MEMORY| Cached                 867076        822556        867076        844816
 MEMORY| Slab                   433916        433916        437432        435674
 MEMORY| SReclaimable           263124        263124        264904        264014
 MEMORY| MemLikelyFree        61942184      61939608      61942184      61940896


 *** Fundamental physical constants (SI units) ***

 *** Literature: B. J. Mohr and B. N. Taylor,
 ***             CODATA recommended values of the fundamental physical
 ***             constants: 2006, Web Version 5.1
 ***             http://physics.nist.gov/constants

 Speed of light in vacuum [m/s]                             2.99792458000000E+08
 Magnetic constant or permeability of vacuum [N/A**2]       1.25663706143592E-06
 Electric constant or permittivity of vacuum [F/m]          8.85418781762039E-12
 Planck constant (h) [J*s]                                  6.62606896000000E-34
 Planck constant (h-bar) [J*s]                              1.05457162825177E-34
 Elementary charge [C]                                      1.60217648700000E-19
 Electron mass [kg]                                         9.10938215000000E-31
 Electron g factor [ ]                                     -2.00231930436220E+00
 Proton mass [kg]                                           1.67262163700000E-27
 Fine-structure constant                                    7.29735253760000E-03
 Rydberg constant [1/m]                                     1.09737315685270E+07
 Avogadro constant [1/mol]                                  6.02214179000000E+23
 Boltzmann constant [J/K]                                   1.38065040000000E-23
 Atomic mass unit [kg]                                      1.66053878200000E-27
 Bohr radius [m]                                            5.29177208590000E-11

 *** Conversion factors ***

 [u] -> [a.u.]                                              1.82288848426455E+03
 [Angstrom] -> [Bohr] = [a.u.]                              1.88972613288564E+00
 [a.u.] = [Bohr] -> [Angstrom]                              5.29177208590000E-01
 [a.u.] -> [s]                                              2.41888432650478E-17
 [a.u.] -> [fs]                                             2.41888432650478E-02
 [a.u.] -> [J]                                              4.35974393937059E-18
 [a.u.] -> [N]                                              8.23872205491840E-08
 [a.u.] -> [K]                                              3.15774647902944E+05
 [a.u.] -> [kJ/mol]                                         2.62549961709828E+03
 [a.u.] -> [kcal/mol]                                       6.27509468713739E+02
 [a.u.] -> [Pa]                                             2.94210107994716E+13
 [a.u.] -> [bar]                                            2.94210107994716E+08
 [a.u.] -> [atm]                                            2.90362800883016E+08
 [a.u.] -> [eV]                                             2.72113838565563E+01
 [a.u.] -> [Hz]                                             6.57968392072181E+15
 [a.u.] -> [1/cm] (wave numbers)                            2.19474631370540E+05
 [a.u./Bohr**2] -> [1/cm]                                   5.14048714338585E+03
 

 CELL_TOP| Volume [angstrom^3]:                                        26196.625
 CELL_TOP| Vector a [angstrom    21.385     0.000     0.000    |a| =      21.385
 CELL_TOP| Vector b [angstrom     0.000    35.000     0.000    |b| =      35.000
 CELL_TOP| Vector c [angstrom     0.000     0.000    35.000    |c| =      35.000
 CELL_TOP| Angle (b,c), alpha [degree]:                                   90.000
 CELL_TOP| Angle (a,c), beta  [degree]:                                   90.000
 CELL_TOP| Angle (a,b), gamma [degree]:                                   90.000
 CELL_TOP| Numerically orthorhombic:                                         YES

 CELL| Volume [angstrom^3]:                                            26196.625
 CELL| Vector a [angstrom]:      21.385     0.000     0.000    |a| =      21.385
 CELL| Vector b [angstrom]:       0.000    35.000     0.000    |b| =      35.000
 CELL| Vector c [angstrom]:       0.000     0.000    35.000    |c| =      35.000
 CELL| Angle (b,c), alpha [degree]:                                       90.000
 CELL| Angle (a,c), beta  [degree]:                                       90.000
 CELL| Angle (a,b), gamma [degree]:                                       90.000
 CELL| Numerically orthorhombic:                                             YES

 CELL_REF| Volume [angstrom^3]:                                        26196.625
 CELL_REF| Vector a [angstrom    21.385     0.000     0.000    |a| =      21.385
 CELL_REF| Vector b [angstrom     0.000    35.000     0.000    |b| =      35.000
 CELL_REF| Vector c [angstrom     0.000     0.000    35.000    |c| =      35.000
 CELL_REF| Angle (b,c), alpha [degree]:                                   90.000
 CELL_REF| Angle (a,c), beta  [degree]:                                   90.000
 CELL_REF| Angle (a,b), gamma [degree]:                                   90.000
 CELL_REF| Numerically orthorhombic:                                         YES

 *******************************************************************************
 *******************************************************************************
 **                                                                           **
 **     #####                         ##              ##                      **
 **    ##   ##            ##          ##              ##                      **
 **   ##     ##                       ##            ######                    **
 **   ##     ##  ##   ##  ##   #####  ##  ##   ####   ##    #####    #####    **
 **   ##     ##  ##   ##  ##  ##      ## ##   ##      ##   ##   ##  ##   ##   **
 **   ##  ## ##  ##   ##  ##  ##      ####     ###    ##   ######   ######    **
 **    ##  ###   ##   ##  ##  ##      ## ##      ##   ##   ##       ##        **
 **     #######   #####   ##   #####  ##  ##  ####    ##    #####   ##        **
 **           ##                                                    ##        **
 **                                                                           **
 **                                                ... make the atoms dance   **
 **                                                                           **
 **            Copyright (C) by CP2K developers group (2000 - 2018)           **
 **                                                                           **
 *******************************************************************************

 DFT| Spin unrestricted (spin-polarized) Kohn-Sham calculation               UKS
 DFT| Multiplicity                                                            35
 DFT| Number of spin states                                                    2
 DFT| Charge                                                                   6
 DFT| Self-interaction correction (SIC)                                       NO
 DFT| Cutoffs: density                                              1.000000E-10
 DFT|          gradient                                             1.000000E-10
 DFT|          tau                                                  1.000000E-10
 DFT|          cutoff_smoothing_range                               0.000000E+00
 DFT| XC density smoothing                                                  NONE
 DFT| XC derivatives                                                          PW

 DFT+U| Method                                                          MULLIKEN
 DFT+U| Check atomic kind information for details
 FUNCTIONAL| ROUTINE=NEW
 FUNCTIONAL| BECKE88:
 FUNCTIONAL| A. Becke, Phys. Rev. A 38, 3098 (1988) {LSD version}               
 FUNCTIONAL| LYP:
 FUNCTIONAL| C. Lee, W. Yang, R.G. Parr, Phys. Rev. B, 37, 785 (1988) {LSD versi
 FUNCTIONAL| on}                                                                

 QS| Method:                                                                 GPW
 QS| Density plane wave grid type                        NON-SPHERICAL FULLSPACE
 QS| Number of grid levels:                                                   10
 QS| Density cutoff [a.u.]:                                                325.0
 QS| Multi grid cutoff [a.u.]: 1) grid level                               325.0
 QS|                           2) grid level                               108.3
 QS|                           3) grid level                                36.1
 QS|                           4) grid level                                12.0
 QS|                           5) grid level                                 4.0
 QS|                           6) grid level                                 1.3
 QS|                           7) grid level                                 0.4
 QS|                           8) grid level                                 0.1
 QS|                           9) grid level                                 0.0
 QS|                          10) grid level                                 0.0
 QS| Grid level progression factor:                                          3.0
 QS| Relative density cutoff [a.u.]:                                        30.0
 QS| Consistent realspace mapping and integration 
 QS| Interaction thresholds: eps_pgf_orb:                                1.0E-10
 QS|                         eps_filter_matrix:                          0.0E+00
 QS|                         eps_core_charge:                            1.0E-14
 QS|                         eps_rho_gspace:                             1.0E-12
 QS|                         eps_rho_rspace:                             1.0E-12
 QS|                         eps_gvg_rspace:                             1.0E-06
 QS|                         eps_ppl:                                    1.0E-02
 QS|                         eps_ppnl:                                   1.0E-08


 ATOMIC KIND INFORMATION

  1. Atomic kind: Fe                                    Number of atoms:       7

     Orbital Basis Set                                                   mod-DZV

       Number of orbital shell sets:                                           1
       Number of orbital shells:                                               7
       Number of primitive Cartesian functions:                                6
       Number of Cartesian basis functions:                                   21
       Number of spherical basis functions:                                   19
       Norm type:                                                              2

       Normalised Cartesian orbitals:

                        Set   Shell   Orbital            Exponent    Coefficient

                          1       1    2s                8.424366      -0.545589
                                                         4.825220      -0.832336
                                                         2.198939       0.958990
                                                         0.891661       0.416271
                                                         0.316231       0.012631
                                                         0.103474      -0.013505

                          1       2    3s                8.424366      -0.106056
                                                         4.825220      -0.104587
                                                         2.198939       0.052318
                                                         0.891661      -0.169042
                                                         0.316231       0.061854
                                                         0.103474       0.122891

                          1       3    4s                8.424366      -0.333477
                                                         4.825220      -0.289267
                                                         2.198939      -0.125861
                                                         0.891661      -1.004000
                                                         0.316231       0.780774
                                                         0.103474      -0.187846

                          1       4    3px               8.424366      -1.658234
                                                         4.825220       1.618912
                                                         2.198939       1.969078
                                                         0.891661       0.523780
                                                         0.316231       0.024574
                                                         0.103474      -0.000798
                          1       4    3py               8.424366      -1.658234
                                                         4.825220       1.618912
                                                         2.198939       1.969078
                                                         0.891661       0.523780
                                                         0.316231       0.024574
                                                         0.103474      -0.000798
                          1       4    3pz               8.424366      -1.658234
                                                         4.825220       1.618912
                                                         2.198939       1.969078
                                                         0.891661       0.523780
                                                         0.316231       0.024574
                                                         0.103474      -0.000798

                          1       5    4px               8.424366      -0.105249
                                                         4.825220      -0.126123
                                                         2.198939      -0.349657
                                                         0.891661      -0.133470
                                                         0.316231       0.170554
                                                         0.103474       0.054381
                          1       5    4py               8.424366      -0.105249
                                                         4.825220      -0.126123
                                                         2.198939      -0.349657
                                                         0.891661      -0.133470
                                                         0.316231       0.170554
                                                         0.103474       0.054381
                          1       5    4pz               8.424366      -0.105249
                                                         4.825220      -0.126123
                                                         2.198939      -0.349657
                                                         0.891661      -0.133470
                                                         0.316231       0.170554
                                                         0.103474       0.054381

                          1       6    4dx2              8.424366       7.918298
                                                         4.825220       5.112663
                                                         2.198939       2.118663
                                                         0.891661       0.465004
                                                         0.316231       0.065856
                                                         0.103474       0.002769
                          1       6    4dxy              8.424366      13.714895
                                                         4.825220       8.855393
                                                         2.198939       3.669632
                                                         0.891661       0.805411
                                                         0.316231       0.114066
                                                         0.103474       0.004796
                          1       6    4dxz              8.424366      13.714895
                                                         4.825220       8.855393
                                                         2.198939       3.669632
                                                         0.891661       0.805411
                                                         0.316231       0.114066
                                                         0.103474       0.004796
                          1       6    4dy2              8.424366       7.918298
                                                         4.825220       5.112663
                                                         2.198939       2.118663
                                                         0.891661       0.465004
                                                         0.316231       0.065856
                                                         0.103474       0.002769
                          1       6    4dyz              8.424366      13.714895
                                                         4.825220       8.855393
                                                         2.198939       3.669632
                                                         0.891661       0.805411
                                                         0.316231       0.114066
                                                         0.103474       0.004796
                          1       6    4dz2              8.424366       7.918298
                                                         4.825220       5.112663
                                                         2.198939       2.118663
                                                         0.891661       0.465004
                                                         0.316231       0.065856
                                                         0.103474       0.002769

                          1       7    5dx2              8.424366      -4.223614
                                                         4.825220      -1.970584
                                                         2.198939      -1.543490
                                                         0.891661      -0.041381
                                                         0.316231       0.082821
                                                         0.103474       0.021964
                          1       7    5dxy              8.424366      -7.315513
                                                         4.825220      -3.413151
                                                         2.198939      -2.673404
                                                         0.891661      -0.071673
                                                         0.316231       0.143450
                                                         0.103474       0.038042
                          1       7    5dxz              8.424366      -7.315513
                                                         4.825220      -3.413151
                                                         2.198939      -2.673404
                                                         0.891661      -0.071673
                                                         0.316231       0.143450
                                                         0.103474       0.038042
                          1       7    5dy2              8.424366      -4.223614
                                                         4.825220      -1.970584
                                                         2.198939      -1.543490
                                                         0.891661      -0.041381
                                                         0.316231       0.082821
                                                         0.103474       0.021964
                          1       7    5dyz              8.424366      -7.315513
                                                         4.825220      -3.413151
                                                         2.198939      -2.673404
                                                         0.891661      -0.071673
                                                         0.316231       0.143450
                                                         0.103474       0.038042
                          1       7    5dz2              8.424366      -4.223614
                                                         4.825220      -1.970584
                                                         2.198939      -1.543490
                                                         0.891661      -0.041381
                                                         0.316231       0.082821
                                                         0.103474       0.021964

     GTH Potential information for                                  GTH-BLYP-q16

       Description:                       Goedecker-Teter-Hutter pseudopotential
                                           Goedecker et al., PRB 54, 1703 (1996)
                                          Hartwigsen et al., PRB 58, 3641 (1998)
                                                      Krack, TCA 114, 145 (2005)

       Gaussian exponent of the core charge distribution:               3.858025
       Electronic configuration (s p d ...):                           4   6   6

       Parameters of the local part of the GTH pseudopotential:

                          rloc        C1          C2          C3          C4
                        0.360000    7.011025   -0.222747

       Parameters of the non-local part of the GTH pseudopotential:

                   l      r(l)      h(i,j,l)

                   0    0.276205    0.611496    7.992357
                                    7.992357  -10.318089
                   1    0.247130   -8.710556    8.684169
                                    8.684169  -10.275248
                   2    0.223534  -12.411504

     A DFT+U correction is applied to atoms of this atomic kind:
       Angular quantum momentum number L:                                      2
       U(eff) = (U - J) value in [eV]:                                     7.000

  2. Atomic kind: O                                     Number of atoms:      28

     Orbital Basis Set                                                   mod-DZV

       Number of orbital shell sets:                                           1
       Number of orbital shells:                                               4
       Number of primitive Cartesian functions:                                5
       Number of Cartesian basis functions:                                    8
       Number of spherical basis functions:                                    8
       Norm type:                                                              2

       Normalised Cartesian orbitals:

                        Set   Shell   Orbital            Exponent    Coefficient

                          1       1    2s               10.389228       0.396646
                                                         3.849621       0.208811
                                                         1.388401      -0.301641
                                                         0.496955      -0.274061
                                                         0.162492      -0.033677

                          1       2    3s               10.389228       0.303673
                                                         3.849621       0.240943
                                                         1.388401      -0.313066
                                                         0.496955      -0.043055
                                                         0.162492       0.213991

                          1       3    3px              10.389228      -1.530415
                                                         3.849621      -1.371928
                                                         1.388401      -0.761951
                                                         0.496955      -0.253695
                                                         0.162492      -0.035541
                          1       3    3py              10.389228      -1.530415
                                                         3.849621      -1.371928
                                                         1.388401      -0.761951
                                                         0.496955      -0.253695
                                                         0.162492      -0.035541
                          1       3    3pz              10.389228      -1.530415
                                                         3.849621      -1.371928
                                                         1.388401      -0.761951
                                                         0.496955      -0.253695
                                                         0.162492      -0.035541

                          1       4    4px              10.389228      -0.565392
                                                         3.849621      -0.038231
                                                         1.388401      -0.382373
                                                         0.496955       0.179070
                                                         0.162492       0.122714
                          1       4    4py              10.389228      -0.565392
                                                         3.849621      -0.038231
                                                         1.388401      -0.382373
                                                         0.496955       0.179070
                                                         0.162492       0.122714
                          1       4    4pz              10.389228      -0.565392
                                                         3.849621      -0.038231
                                                         1.388401      -0.382373
                                                         0.496955       0.179070
                                                         0.162492       0.122714

     GTH Potential information for                                   GTH-BLYP-q6

       Description:                       Goedecker-Teter-Hutter pseudopotential
                                           Goedecker et al., PRB 54, 1703 (1996)
                                          Hartwigsen et al., PRB 58, 3641 (1998)
                                                      Krack, TCA 114, 145 (2005)

       Gaussian exponent of the core charge distribution:               8.438331
       Electronic configuration (s p d ...):                               2   4

       Parameters of the local part of the GTH pseudopotential:

                          rloc        C1          C2          C3          C4
                        0.243420  -16.991892    2.566142

       Parameters of the non-local part of the GTH pseudopotential:

                   l      r(l)      h(i,j,l)

                   0    0.220831   18.388851
                   1    0.217201

  3. Atomic kind: H                                     Number of atoms:      42

     Orbital Basis Set                                                   mod-DZV

       Number of orbital shell sets:                                           1
       Number of orbital shells:                                               2
       Number of primitive Cartesian functions:                                5
       Number of Cartesian basis functions:                                    2
       Number of spherical basis functions:                                    2
       Norm type:                                                              2

       Normalised Cartesian orbitals:

                        Set   Shell   Orbital            Exponent    Coefficient

                          1       1    2s               10.068468      -0.133023
                                                         2.680223      -0.177618
                                                         0.791502      -0.258419
                                                         0.239116      -0.107525
                                                         0.082193      -0.014019

                          1       2    3s               10.068468       0.344673
                                                         2.680223       1.819821
                                                         0.791502      -0.999069
                                                         0.239116       0.017430
                                                         0.082193       0.082660

     GTH Potential information for                                   GTH-BLYP-q1

       Description:                       Goedecker-Teter-Hutter pseudopotential
                                           Goedecker et al., PRB 54, 1703 (1996)
                                          Hartwigsen et al., PRB 58, 3641 (1998)
                                                      Krack, TCA 114, 145 (2005)

       Gaussian exponent of the core charge distribution:              12.500000
       Electronic configuration (s p d ...):                                   1

       Parameters of the local part of the GTH pseudopotential:

                          rloc        C1          C2          C3          C4
                        0.200000   -4.195961    0.730498


 MOLECULE KIND INFORMATION


 All atoms are their own molecule, skipping detailed information


 TOTAL NUMBERS AND MAXIMUM NUMBERS

  Total number of            - Atomic kinds:                                   3
                             - Atoms:                                         77
                             - Shell sets:                                    77
                             - Shells:                                       245
                             - Primitive Cartesian functions:                392
                             - Cartesian basis functions:                    455
                             - Spherical basis functions:                    441

  Maximum angular momentum of- Orbital basis functions:                        2
                             - Local part of the GTH pseudopotential:          2
                             - Non-local part of the GTH pseudopotential:      3


 MODULE QUICKSTEP:  ATOMIC COORDINATES IN angstrom

  Atom  Kind  Element       X           Y           Z          Z(eff)       Mass

       1     1 Fe  26   18.339460    0.000030    0.000110     16.00      55.8450
       2     1 Fe  26   15.282505    0.002139    0.000142     16.00      55.8450
       3     1 Fe  26   12.206395    0.003263    0.011586     16.00      55.8450
       4     1 Fe  26    9.150537    0.007909   -0.001240     16.00      55.8450
       5     1 Fe  26    6.136473    0.011442    0.001572     16.00      55.8450
       6     1 Fe  26    3.094949   -0.001212   -0.000325     16.00      55.8450
       7     1 Fe  26    0.015465    0.007010   -0.011321     16.00      55.8450
       8     2 O    8   18.323982    0.008025    2.100963      6.00      15.9994
       9     2 O    8   18.321539   -0.007545   -2.101709      6.00      15.9994
      10     2 O    8   19.861138   -1.232795    0.003578      6.00      15.9994
      11     2 O    8   19.858902    1.242833   -0.008995      6.00      15.9994
      12     2 O    8   15.294342    0.008012    2.106685      6.00      15.9994
      13     2 O    8   15.289142   -0.007109   -2.105954      6.00      15.9994
      14     2 O    8   16.815819   -1.238741    0.006344      6.00      15.9994
      15     2 O    8   16.816133    1.241083   -0.006794      6.00      15.9994
      16     2 O    8   12.275330    0.029124    2.153533      6.00      15.9994
      17     2 O    8   12.251714   -0.027523   -2.124744      6.00      15.9994
      18     2 O    8   13.772799   -1.230273    0.009911      6.00      15.9994
      19     2 O    8   13.773937    1.239466   -0.005316      6.00      15.9994
      20     2 O    8    9.209260   -0.004195    2.184680      6.00      15.9994
      21     2 O    8    9.210739    0.027784   -2.183255      6.00      15.9994
      22     2 O    8   10.758751   -1.246643    0.025945      6.00      15.9994
      23     2 O    8   10.762954    1.259921    0.004032      6.00      15.9994
      24     2 O    8    6.099095    0.024355    2.198225      6.00      15.9994
      25     2 O    8    6.099694    0.012143   -2.195576      6.00      15.9994
      26     2 O    8    7.668565   -1.273992   -0.006450      6.00      15.9994
      27     2 O    8    7.670002    1.291578    0.005909      6.00      15.9994
      28     2 O    8    3.014098   -0.031509    2.137007      6.00      15.9994
      29     2 O    8    3.017350    0.030552   -2.140847      6.00      15.9994
      30     2 O    8    4.521140   -1.259510   -0.025247      6.00      15.9994
      31     2 O    8    4.515617    1.266536    0.028249      6.00      15.9994
      32     2 O    8   -0.020427    0.007553    2.101070      6.00      15.9994
      33     2 O    8   -0.025523   -0.004622   -2.125666      6.00      15.9994
      34     2 O    8    1.516597   -1.227688   -0.026257      6.00      15.9994
      35     2 O    8    1.517061    1.239945   -0.003254      6.00      15.9994
      36     3 H    1   18.344333   -0.820803   -2.660998      1.00       1.0079
      37     3 H    1   18.311206    0.804361   -2.666169      1.00       1.0079
      38     3 H    1   18.301201   -0.803003    2.667479      1.00       1.0079
      39     3 H    1   18.340116    0.822137    2.659970      1.00       1.0079
      40     3 H    1   19.868341   -2.221136    0.003352      1.00       1.0079
      41     3 H    1   19.862743    2.231139   -0.011021      1.00       1.0079
      42     3 H    1   15.148813   -0.822123   -2.652206      1.00       1.0079
      43     3 H    1   15.155170    0.801213   -2.660358      1.00       1.0079
      44     3 H    1   15.147622   -0.800529    2.659049      1.00       1.0079
      45     3 H    1   15.139958    0.822122    2.651200      1.00       1.0079
      46     3 H    1   16.810844   -2.227081    0.006994      1.00       1.0079
      47     3 H    1   16.812014    2.229378   -0.006530      1.00       1.0079
      48     3 H    1   12.021070   -0.840797   -2.641462      1.00       1.0079
      49     3 H    1   12.053186    0.779198   -2.665238      1.00       1.0079
      50     3 H    1   12.068609   -0.779329    2.690019      1.00       1.0079
      51     3 H    1   12.026342    0.839455    2.666145      1.00       1.0079
      52     3 H    1   13.754571   -2.218235    0.012396      1.00       1.0079
      53     3 H    1   13.756304    2.227334   -0.008834      1.00       1.0079
      54     3 H    1    9.051148   -0.773150   -2.730228      1.00       1.0079
      55     3 H    1    9.091738    0.851243   -2.713824      1.00       1.0079
      56     3 H    1    9.094322   -0.827747    2.716648      1.00       1.0079
      57     3 H    1    9.042111    0.795966    2.728925      1.00       1.0079
      58     3 H    1   10.733909   -2.233480    0.027322      1.00       1.0079
      59     3 H    1   10.742218    2.246756    0.003846      1.00       1.0079
      60     3 H    1    6.155189   -0.804778   -2.746360      1.00       1.0079
      61     3 H    1    6.183005    0.821048   -2.747167      1.00       1.0079
      62     3 H    1    6.180085   -0.780765    2.756818      1.00       1.0079
      63     3 H    1    6.157561    0.845257    2.742657      1.00       1.0079
      64     3 H    1    7.663920   -2.260034   -0.007372      1.00       1.0079
      65     3 H    1    7.668672    2.277831    0.010700      1.00       1.0079
      66     3 H    1    3.222930   -0.772472   -2.684640      1.00       1.0079
      67     3 H    1    3.195318    0.851079   -2.668335      1.00       1.0079
      68     3 H    1    3.186517   -0.851632    2.667013      1.00       1.0079
      69     3 H    1    3.224924    0.771686    2.678374      1.00       1.0079
      70     3 H    1    4.545699   -2.246085   -0.027432      1.00       1.0079
      71     3 H    1    4.530950    2.253223    0.027435      1.00       1.0079
      72     3 H    1    0.144135   -0.813569   -2.666771      1.00       1.0079
      73     3 H    1    0.090952    0.807858   -2.681925      1.00       1.0079
      74     3 H    1    0.087249   -0.807774    2.654605      1.00       1.0079
      75     3 H    1    0.145995    0.814237    2.646575      1.00       1.0079
      76     3 H    1    1.535551   -2.215504   -0.026547      1.00       1.0079
      77     3 H    1    1.539742    2.227561   -0.003165      1.00       1.0079




 SCF PARAMETERS         Density guess:                                   RESTART
                        --------------------------------------------------------
                        max_scf:                                            1000
                        max_scf_history:                                       0
                        max_diis:                                              4
                        --------------------------------------------------------
                        eps_scf:                                        1.00E-06
                        eps_scf_history:                                0.00E+00
                        eps_diis:                                       1.00E-01
                        eps_eigval:                                     1.00E-05
                        --------------------------------------------------------
                        level_shift [a.u.]:                                 0.00
                        --------------------------------------------------------
                        Outer loop SCF in use 
                        No variables optimised in outer loop
                        eps_scf                                         1.00E-06
                        max_scf                                              500
                        No outer loop optimization
                        step_size                                       5.00E-01

 PW_GRID| Information for grid number                                          1
 PW_GRID| Grid distributed over                                    40 processors
 PW_GRID| Real space group dimensions                                    40    1
 PW_GRID| the grid is blocked:                                                NO
 PW_GRID| Cutoff [a.u.]                                                    325.0
 PW_GRID| spherical cutoff:                                                   NO
 PW_GRID|   Bounds   1           -165     164                Points:         330
 PW_GRID|   Bounds   2           -270     269                Points:         540
 PW_GRID|   Bounds   3           -270     269                Points:         540
 PW_GRID| Volume element (a.u.^3)  0.1837E-02     Volume (a.u.^3)    176783.5904
 PW_GRID| Grid span                                                    FULLSPACE
 PW_GRID|   Distribution                         Average         Max         Min
 PW_GRID|   G-Vectors                          2405700.0     2405700     2405700
 PW_GRID|   G-Rays                                7290.0        7290        7290
 PW_GRID|   Real Space Points                  2405700.0     2624400     2332800

 PW_GRID| Information for grid number                                          2
 PW_GRID| Grid distributed over                                    40 processors
 PW_GRID| Real space group dimensions                                    40    1
 PW_GRID| the grid is blocked:                                                NO
 PW_GRID| Cutoff [a.u.]                                                    108.3
 PW_GRID| spherical cutoff:                                                   NO
 PW_GRID|   Bounds   1            -94      94                Points:         189
 PW_GRID|   Bounds   2           -157     157                Points:         315
 PW_GRID|   Bounds   3           -157     157                Points:         315
 PW_GRID| Volume element (a.u.^3)  0.9427E-02     Volume (a.u.^3)    176783.5904
 PW_GRID| Grid span                                                    FULLSPACE
 PW_GRID|   Distribution                         Average         Max         Min
 PW_GRID|   G-Vectors                           468838.1      469098      468720
 PW_GRID|   G-Rays                                2480.6        2482        2480
 PW_GRID|   Real Space Points                   468838.1      496125      396900

 PW_GRID| Information for grid number                                          3
 PW_GRID| Grid distributed over                                    40 processors
 PW_GRID| Real space group dimensions                                    40    1
 PW_GRID| the grid is blocked:                                                NO
 PW_GRID| Cutoff [a.u.]                                                     36.1
 PW_GRID| spherical cutoff:                                                   NO
 PW_GRID|   Bounds   1            -55      54                Points:         110
 PW_GRID|   Bounds   2            -90      89                Points:         180
 PW_GRID|   Bounds   3            -90      89                Points:         180
 PW_GRID| Volume element (a.u.^3)  0.4960E-01     Volume (a.u.^3)    176783.5904
 PW_GRID| Grid span                                                    FULLSPACE
 PW_GRID|   Distribution                         Average         Max         Min
 PW_GRID|   G-Vectors                            89100.0       89320       88990
 PW_GRID|   G-Rays                                 810.0         812         809
 PW_GRID|   Real Space Points                    89100.0       97200       64800

 PW_GRID| Information for grid number                                          4
 PW_GRID| Grid distributed over                                    40 processors
 PW_GRID| Real space group dimensions                                    40    1
 PW_GRID| the grid is blocked:                                                NO
 PW_GRID| Cutoff [a.u.]                                                     12.0
 PW_GRID| spherical cutoff:                                                   NO
 PW_GRID|   Bounds   1            -31      31                Points:          63
 PW_GRID|   Bounds   2            -52      52                Points:         105
 PW_GRID|   Bounds   3            -52      52                Points:         105
 PW_GRID| Volume element (a.u.^3)  0.2545         Volume (a.u.^3)    176783.5904
 PW_GRID| Grid span                                                    FULLSPACE
 PW_GRID|   Distribution                         Average         Max         Min
 PW_GRID|   G-Vectors                            17364.4       17451       17262
 PW_GRID|   G-Rays                                 275.6         277         274
 PW_GRID|   Real Space Points                    17364.4       22050       11025

 PW_GRID| Information for grid number                                          5
 PW_GRID| Grid distributed over                                    40 processors
 PW_GRID| Real space group dimensions                                    40    1
 PW_GRID| the grid is blocked:                                                NO
 PW_GRID| Cutoff [a.u.]                                                      4.0
 PW_GRID| spherical cutoff:                                                   NO
 PW_GRID|   Bounds   1            -20      19                Points:          40
 PW_GRID|   Bounds   2            -30      29                Points:          60
 PW_GRID|   Bounds   3            -30      29                Points:          60
 PW_GRID| Volume element (a.u.^3)   1.228         Volume (a.u.^3)    176783.5904
 PW_GRID| Grid span                                                    FULLSPACE
 PW_GRID|   Distribution                         Average         Max         Min
 PW_GRID|   G-Vectors                             3600.0        3680        3560
 PW_GRID|   G-Rays                                  90.0          92          89
 PW_GRID|   Real Space Points                     3600.0        3600        3600

 PW_GRID| Information for grid number                                          6
 PW_GRID| Grid distributed over                                    40 processors
 PW_GRID| Real space group dimensions                                     5    8
 PW_GRID| the grid is blocked:                                                NO
 PW_GRID| Cutoff [a.u.]                                                      1.3
 PW_GRID| spherical cutoff:                                                   NO
 PW_GRID|   Bounds   1            -10      10                Points:          21
 PW_GRID|   Bounds   2            -17      17                Points:          35
 PW_GRID|   Bounds   3            -17      17                Points:          35
 PW_GRID| Volume element (a.u.^3)   6.872         Volume (a.u.^3)    176783.5904
 PW_GRID| Grid span                                                    FULLSPACE
 PW_GRID|   Distribution                         Average         Max         Min
 PW_GRID|   G-Vectors                              643.1         714         588
 PW_GRID|   G-Rays                                  30.6          34          28
 PW_GRID|   Real Space Points                      643.1         875         560

 PW_GRID| Information for grid number                                          7
 PW_GRID| Grid distributed over                                    40 processors
 PW_GRID| Real space group dimensions                                     5    8
 PW_GRID| the grid is blocked:                                                NO
 PW_GRID| Cutoff [a.u.]                                                      0.4
 PW_GRID| spherical cutoff:                                                   NO
 PW_GRID|   Bounds   1             -7       6                Points:          14
 PW_GRID|   Bounds   2            -10       9                Points:          20
 PW_GRID|   Bounds   3            -10       9                Points:          20
 PW_GRID| Volume element (a.u.^3)   31.57         Volume (a.u.^3)    176783.5904
 PW_GRID| Grid span                                                    FULLSPACE
 PW_GRID|   Distribution                         Average         Max         Min
 PW_GRID|   G-Vectors                              140.0         168         126
 PW_GRID|   G-Rays                                  10.0          12           9
 PW_GRID|   Real Space Points                      140.0         180          80

 PW_GRID| Information for grid number                                          8
 PW_GRID| Grid distributed over                                    40 processors
 PW_GRID| Real space group dimensions                                     5    8
 PW_GRID| the grid is blocked:                                                NO
 PW_GRID| Cutoff [a.u.]                                                      0.1
 PW_GRID| spherical cutoff:                                                   NO
 PW_GRID|   Bounds   1             -3       3                Points:           7
 PW_GRID|   Bounds   2             -5       5                Points:          11
 PW_GRID|   Bounds   3             -5       5                Points:          11
 PW_GRID| Volume element (a.u.^3)   208.7         Volume (a.u.^3)    176783.5904
 PW_GRID| Grid span                                                    FULLSPACE
 PW_GRID|   Distribution                         Average         Max         Min
 PW_GRID|   G-Vectors                               21.2          35          14
 PW_GRID|   G-Rays                                   3.0           5           2
 PW_GRID|   Real Space Points                       21.2          44          11

 PW_GRID| Information for grid number                                          9
 PW_GRID| Grid distributed over                                    40 processors
 PW_GRID| Real space group dimensions                                     5    8
 PW_GRID| the grid is blocked:                                                NO
 PW_GRID| Cutoff [a.u.]                                                      0.0
 PW_GRID| spherical cutoff:                                                   NO
 PW_GRID|   Bounds   1             -2       2                Points:           5
 PW_GRID|   Bounds   2             -3       3                Points:           7
 PW_GRID|   Bounds   3             -3       3                Points:           7
 PW_GRID| Volume element (a.u.^3)   721.6         Volume (a.u.^3)    176783.5904
 PW_GRID| Grid span                                                    FULLSPACE
 PW_GRID|   Distribution                         Average         Max         Min
 PW_GRID|   G-Vectors                                6.1          15           0
 PW_GRID|   G-Rays                                   1.2           3           0
 PW_GRID|   Real Space Points                        6.1           7           0

 PW_GRID| Information for grid number                                         10
 PW_GRID| Grid distributed over                                    40 processors
 PW_GRID| Real space group dimensions                                     5    8
 PW_GRID| the grid is blocked:                                                NO
 PW_GRID| Cutoff [a.u.]                                                      0.0
 PW_GRID| spherical cutoff:                                                   NO
 PW_GRID|   Bounds   1             -1       1                Points:           3
 PW_GRID|   Bounds   2             -1       1                Points:           3
 PW_GRID|   Bounds   3             -1       1                Points:           3
 PW_GRID| Volume element (a.u.^3)   6548.         Volume (a.u.^3)    176783.5904
 PW_GRID| Grid span                                                    FULLSPACE
 PW_GRID|   Distribution                         Average         Max         Min
 PW_GRID|   G-Vectors                                0.7           3           0
 PW_GRID|   G-Rays                                   0.2           1           0
 PW_GRID|   Real Space Points                        0.7           3           0

 POISSON| Solver                                                        PERIODIC
 POISSON| Periodicity                                                        XYZ

 RS_GRID| Information for grid number                                          1
 RS_GRID|   Bounds   1           -165     164                Points:         330
 RS_GRID|   Bounds   2           -270     269                Points:         540
 RS_GRID|   Bounds   3           -270     269                Points:         540
 RS_GRID| Real space distribution over                                  5 groups
 RS_GRID| Real space distribution along direction                              2
 RS_GRID| Border size                                                         25
 RS_GRID| Real space distribution over                                  8 groups
 RS_GRID| Real space distribution along direction                              3
 RS_GRID| Border size                                                         25
 RS_GRID|   Distribution                         Average         Max         Min
 RS_GRID|   Planes                                 158.0         158         158
 RS_GRID|   Distribution                         Average         Max         Min
 RS_GRID|   Planes                                 117.5         118         117

 RS_GRID| Information for grid number                                          2
 RS_GRID|   Bounds   1            -94      94                Points:         189
 RS_GRID|   Bounds   2           -157     157                Points:         315
 RS_GRID|   Bounds   3           -157     157                Points:         315
 RS_GRID| Real space distribution over                                  5 groups
 RS_GRID| Real space distribution along direction                              2
 RS_GRID| Border size                                                         28
 RS_GRID| Real space distribution over                                  8 groups
 RS_GRID| Real space distribution along direction                              3
 RS_GRID| Border size                                                         28
 RS_GRID|   Distribution                         Average         Max         Min
 RS_GRID|   Planes                                 119.0         119         119
 RS_GRID|   Distribution                         Average         Max         Min
 RS_GRID|   Planes                                  95.4          96          95

 RS_GRID| Information for grid number                                          3
 RS_GRID|   Bounds   1            -55      54                Points:         110
 RS_GRID|   Bounds   2            -90      89                Points:         180
 RS_GRID|   Bounds   3            -90      89                Points:         180
 RS_GRID| Real space fully replicated
 RS_GRID| Group size                                                           1

 RS_GRID| Information for grid number                                          4
 RS_GRID|   Bounds   1            -31      31                Points:          63
 RS_GRID|   Bounds   2            -52      52                Points:         105
 RS_GRID|   Bounds   3            -52      52                Points:         105
 RS_GRID| Real space fully replicated
 RS_GRID| Group size                                                           1

 RS_GRID| Information for grid number                                          5
 RS_GRID|   Bounds   1            -20      19                Points:          40
 RS_GRID|   Bounds   2            -30      29                Points:          60
 RS_GRID|   Bounds   3            -30      29                Points:          60
 RS_GRID| Real space fully replicated
 RS_GRID| Group size                                                           1

 RS_GRID| Information for grid number                                          6
 RS_GRID|   Bounds   1            -10      10                Points:          21
 RS_GRID|   Bounds   2            -17      17                Points:          35
 RS_GRID|   Bounds   3            -17      17                Points:          35
 RS_GRID| Real space fully replicated
 RS_GRID| Group size                                                           1

 RS_GRID| Information for grid number                                          7
 RS_GRID|   Bounds   1             -7       6                Points:          14
 RS_GRID|   Bounds   2            -10       9                Points:          20
 RS_GRID|   Bounds   3            -10       9                Points:          20
 RS_GRID| Real space fully replicated
 RS_GRID| Group size                                                           1

 RS_GRID| Information for grid number                                          8
 RS_GRID|   Bounds   1             -3       3                Points:           7
 RS_GRID|   Bounds   2             -5       5                Points:          11
 RS_GRID|   Bounds   3             -5       5                Points:          11
 RS_GRID| Real space fully replicated
 RS_GRID| Group size                                                           1

 RS_GRID| Information for grid number                                          9
 RS_GRID|   Bounds   1             -2       2                Points:           5
 RS_GRID|   Bounds   2             -3       3                Points:           7
 RS_GRID|   Bounds   3             -3       3                Points:           7
 RS_GRID| Real space fully replicated
 RS_GRID| Group size                                                           1

 RS_GRID| Information for grid number                                         10
 RS_GRID|   Bounds   1             -1       1                Points:           3
 RS_GRID|   Bounds   2             -1       1                Points:           3
 RS_GRID|   Bounds   3             -1       1                Points:           3
 RS_GRID| Real space fully replicated
 RS_GRID| Group size                                                           1

 Spin 1

 Number of electrons:                                                        175
 Number of occupied orbitals:                                                175
 Number of molecular orbitals:                                               175

 Spin 2

 Number of electrons:                                                        141
 Number of occupied orbitals:                                                141
 Number of molecular orbitals:                                               141

 Number of orbital functions:                                                441
 Number of independent orbital functions:                                    441

 Extrapolation method: initial_guess


 SCF WAVEFUNCTION OPTIMIZATION

  ----------------------------------- OT ---------------------------------------
  Minimizer      : CG                  : conjugate gradient
  Preconditioner : FULL_KINETIC        : inversion of T + eS
  Precond_solver : DEFAULT
  Line search    : 2PNT                : 2 energies, one gradient
  stepsize       :    0.15000000                  energy_gap     :    0.20000000
  eps_taylor     :   0.10000E-15                  max_taylor     :             4
  ----------------------------------- OT ---------------------------------------

  Step     Update method      Time    Convergence         Total energy    Change
  ------------------------------------------------------------------------------

 *** WARNING in dft_plus_u.F:1457 :: DFT+U energy contibution is negative ***
 *** possibly due to unphysical Mulliken charges. Check your input, if    ***
 *** this warning persists or try a different method!                     ***

     1 OT CG       0.15E+00   15.3     0.00043055     -1335.5296340887 -1.34E+03

 *** WARNING in dft_plus_u.F:1457 :: DFT+U energy contibution is negative ***
 *** possibly due to unphysical Mulliken charges. Check your input, if    ***
 *** this warning persists or try a different method!                     ***

     2 OT LS       0.60E+00   10.0                    -1335.5332020075

 *** WARNING in dft_plus_u.F:1457 :: DFT+U energy contibution is negative ***
 *** possibly due to unphysical Mulliken charges. Check your input, if    ***
 *** this warning persists or try a different method!                     ***

     3 OT CG       0.60E+00   19.0     0.00022494     -1335.5402224312 -1.06E-02

 *** WARNING in dft_plus_u.F:1457 :: DFT+U energy contibution is negative ***
 *** possibly due to unphysical Mulliken charges. Check your input, if    ***
 *** this warning persists or try a different method!                     ***

     4 OT LS       0.84E+00    9.7                    -1335.5429331727

 *** WARNING in dft_plus_u.F:1457 :: DFT+U energy contibution is negative ***
 *** possibly due to unphysical Mulliken charges. Check your input, if    ***
 *** this warning persists or try a different method!                     ***

     5 OT CG       0.84E+00   19.0     0.00024970     -1335.5431665183 -2.94E-03

 *** WARNING in dft_plus_u.F:1457 :: DFT+U energy contibution is negative ***
 *** possibly due to unphysical Mulliken charges. Check your input, if    ***
 *** this warning persists or try a different method!                     ***

     6 OT LS       0.40E+00    9.6                    -1335.5427545516

 *** WARNING in dft_plus_u.F:1457 :: DFT+U energy contibution is negative ***
 *** possibly due to unphysical Mulliken charges. Check your input, if    ***
 *** this warning persists or try a different method!                     ***

     7 OT CG       0.40E+00   18.9     0.00014340     -1335.5448831837 -1.72E-03

 *** WARNING in dft_plus_u.F:1457 :: DFT+U energy contibution is negative ***
 *** possibly due to unphysical Mulliken charges. Check your input, if    ***
 *** this warning persists or try a different method!                     ***

     8 OT LS       0.33E+00    9.6                    -1335.5453436292

 *** WARNING in dft_plus_u.F:1457 :: DFT+U energy contibution is negative ***
 *** possibly due to unphysical Mulliken charges. Check your input, if    ***
 *** this warning persists or try a different method!                     ***

     9 OT CG       0.33E+00   19.0     0.00009829     -1335.5453602635 -4.77E-04

 *** WARNING in dft_plus_u.F:1457 :: DFT+U energy contibution is negative ***
 *** possibly due to unphysical Mulliken charges. Check your input, if    ***
 *** this warning persists or try a different method!                     ***

    10 OT LS       0.45E+00    9.6                    -1335.5456429430

 *** WARNING in dft_plus_u.F:1457 :: DFT+U energy contibution is negative ***
 *** possibly due to unphysical Mulliken charges. Check your input, if    ***
 *** this warning persists or try a different method!                     ***

    11 OT CG       0.45E+00   19.0     0.00008932     -1335.5456636589 -3.03E-04

 *** WARNING in dft_plus_u.F:1457 :: DFT+U energy contibution is negative ***
 *** possibly due to unphysical Mulliken charges. Check your input, if    ***
 *** this warning persists or try a different method!                     ***

    12 OT LS       0.47E+00    9.6                    -1335.5459225498

 *** WARNING in dft_plus_u.F:1457 :: DFT+U energy contibution is negative ***
 *** possibly due to unphysical Mulliken charges. Check your input, if    ***
 *** this warning persists or try a different method!                     ***

    13 OT CG       0.47E+00   19.1     0.00006260     -1335.5459228361 -2.59E-04

 *** WARNING in dft_plus_u.F:1457 :: DFT+U energy contibution is negative ***
 *** possibly due to unphysical Mulliken charges. Check your input, if    ***
 *** this warning persists or try a different method!                     ***

    14 OT LS       0.34E+00    9.7                    -1335.5460005980

 *** WARNING in dft_plus_u.F:1457 :: DFT+U energy contibution is negative ***
 *** possibly due to unphysical Mulliken charges. Check your input, if    ***
 *** this warning persists or try a different method!                     ***

    15 OT CG       0.34E+00   19.0     0.00004409     -1335.5460144780 -9.16E-05

 *** WARNING in dft_plus_u.F:1457 :: DFT+U energy contibution is negative ***
 *** possibly due to unphysical Mulliken charges. Check your input, if    ***
 *** this warning persists or try a different method!                     ***

    16 OT LS       0.53E+00    9.6                    -1335.5460767022

 *** WARNING in dft_plus_u.F:1457 :: DFT+U energy contibution is negative ***
 *** possibly due to unphysical Mulliken charges. Check your input, if    ***
 *** this warning persists or try a different method!                     ***

    17 OT CG       0.53E+00   19.2     0.00004756     -1335.5460865089 -7.20E-05

 *** WARNING in dft_plus_u.F:1457 :: DFT+U energy contibution is negative ***
 *** possibly due to unphysical Mulliken charges. Check your input, if    ***
 *** this warning persists or try a different method!                     ***

    18 OT LS       0.60E+00    9.7                    -1335.5461800631

 *** WARNING in dft_plus_u.F:1457 :: DFT+U energy contibution is negative ***
 *** possibly due to unphysical Mulliken charges. Check your input, if    ***
 *** this warning persists or try a different method!                     ***

    19 OT CG       0.60E+00   19.1     0.00004882     -1335.5461813463 -9.48E-05

 *** WARNING in dft_plus_u.F:1457 :: DFT+U energy contibution is negative ***
 *** possibly due to unphysical Mulliken charges. Check your input, if    ***
 *** this warning persists or try a different method!                     ***

    20 OT LS       0.50E+00    9.7                    -1335.5462601033

 *** WARNING in dft_plus_u.F:1457 :: DFT+U energy contibution is negative ***
 *** possibly due to unphysical Mulliken charges. Check your input, if    ***
 *** this warning persists or try a different method!                     ***

    21 OT CG       0.50E+00   19.1     0.00004395     -1335.5462638193 -8.25E-05

 *** WARNING in dft_plus_u.F:1457 :: DFT+U energy contibution is negative ***
 *** possibly due to unphysical Mulliken charges. Check your input, if    ***
 *** this warning persists or try a different method!                     ***

    22 OT LS       0.58E+00    9.7                    -1335.5463400883

 *** WARNING in dft_plus_u.F:1457 :: DFT+U energy contibution is negative ***
 *** possibly due to unphysical Mulliken charges. Check your input, if    ***
 *** this warning persists or try a different method!                     ***

    23 OT CG       0.58E+00   19.5     0.00004612     -1335.5463416365 -7.78E-05

 *** WARNING in dft_plus_u.F:1457 :: DFT+U energy contibution is negative ***
 *** possibly due to unphysical Mulliken charges. Check your input, if    ***
 *** this warning persists or try a different method!                     ***

    24 OT LS       0.57E+00    9.7                    -1335.5464256215

 *** WARNING in dft_plus_u.F:1457 :: DFT+U energy contibution is negative ***
 *** possibly due to unphysical Mulliken charges. Check your input, if    ***
 *** this warning persists or try a different method!                     ***

    25 OT CG       0.57E+00   19.1     0.00004168     -1335.5464256537 -8.40E-05

 *** WARNING in dft_plus_u.F:1457 :: DFT+U energy contibution is negative ***
 *** possibly due to unphysical Mulliken charges. Check your input, if    ***
 *** this warning persists or try a different method!                     ***

    26 OT LS       0.46E+00    9.7                    -1335.5464783993

 *** WARNING in dft_plus_u.F:1457 :: DFT+U energy contibution is negative ***
 *** possibly due to unphysical Mulliken charges. Check your input, if    ***
 *** this warning persists or try a different method!                     ***

    27 OT CG       0.46E+00   19.2     0.00003015     -1335.5464813799 -5.57E-05

 *** WARNING in dft_plus_u.F:1457 :: DFT+U energy contibution is negative ***
 *** possibly due to unphysical Mulliken charges. Check your input, if    ***
 *** this warning persists or try a different method!                     ***

    28 OT LS       0.41E+00    9.7                    -1335.5465069538

 *** WARNING in dft_plus_u.F:1457 :: DFT+U energy contibution is negative ***
 *** possibly due to unphysical Mulliken charges. Check your input, if    ***
 *** this warning persists or try a different method!                     ***

    29 OT CG       0.41E+00   19.2     0.00002414     -1335.5465073478 -2.60E-05

 *** WARNING in dft_plus_u.F:1457 :: DFT+U energy contibution is negative ***
 *** possibly due to unphysical Mulliken charges. Check your input, if    ***
 *** this warning persists or try a different method!                     ***

    30 OT LS       0.47E+00    9.6                    -1335.5465259809

 *** WARNING in dft_plus_u.F:1457 :: DFT+U energy contibution is negative ***
 *** possibly due to unphysical Mulliken charges. Check your input, if    ***
 *** this warning persists or try a different method!                     ***

    31 OT CG       0.47E+00   19.1     0.00002094     -1335.5465262517 -1.89E-05

 *** WARNING in dft_plus_u.F:1457 :: DFT+U energy contibution is negative ***
 *** possibly due to unphysical Mulliken charges. Check your input, if    ***
 *** this warning persists or try a different method!                     ***

    32 OT LS       0.40E+00    9.6                    -1335.5465382397

 *** WARNING in dft_plus_u.F:1457 :: DFT+U energy contibution is negative ***
 *** possibly due to unphysical Mulliken charges. Check your input, if    ***
 *** this warning persists or try a different method!                     ***

    33 OT CG       0.40E+00   19.2     0.00001547     -1335.5465385425 -1.23E-05

 *** WARNING in dft_plus_u.F:1457 :: DFT+U energy contibution is negative ***
 *** possibly due to unphysical Mulliken charges. Check your input, if    ***
 *** this warning persists or try a different method!                     ***

    34 OT LS       0.43E+00    9.6                    -1335.5465457393

 *** WARNING in dft_plus_u.F:1457 :: DFT+U energy contibution is negative ***
 *** possibly due to unphysical Mulliken charges. Check your input, if    ***
 *** this warning persists or try a different method!                     ***

    35 OT CG       0.43E+00   19.2     0.00001319     -1335.5465457766 -7.23E-06

 *** WARNING in dft_plus_u.F:1457 :: DFT+U energy contibution is negative ***
 *** possibly due to unphysical Mulliken charges. Check your input, if    ***
 *** this warning persists or try a different method!                     ***

    36 OT LS       0.54E+00    9.6                    -1335.5465520836

 *** WARNING in dft_plus_u.F:1457 :: DFT+U energy contibution is negative ***
 *** possibly due to unphysical Mulliken charges. Check your input, if    ***
 *** this warning persists or try a different method!                     ***

    37 OT CG       0.54E+00   19.2     0.00001331     -1335.5465523469 -6.57E-06

 *** WARNING in dft_plus_u.F:1457 :: DFT+U energy contibution is negative ***
 *** possibly due to unphysical Mulliken charges. Check your input, if    ***
 *** this warning persists or try a different method!                     ***

    38 OT LS       0.47E+00    9.6                    -1335.5465580607

 *** WARNING in dft_plus_u.F:1457 :: DFT+U energy contibution is negative ***
 *** possibly due to unphysical Mulliken charges. Check your input, if    ***
 *** this warning persists or try a different method!                     ***

    39 OT CG       0.47E+00   19.2     0.00001167     -1335.5465581861 -5.84E-06

 *** WARNING in dft_plus_u.F:1457 :: DFT+U energy contibution is negative ***
 *** possibly due to unphysical Mulliken charges. Check your input, if    ***
 *** this warning persists or try a different method!                     ***

    40 OT LS       0.47E+00    9.6                    -1335.5465626172

 *** WARNING in dft_plus_u.F:1457 :: DFT+U energy contibution is negative ***
 *** possibly due to unphysical Mulliken charges. Check your input, if    ***
 *** this warning persists or try a different method!                     ***

    41 OT CG       0.47E+00   19.1     0.00001026     -1335.5465626178 -4.43E-06

 *** WARNING in dft_plus_u.F:1457 :: DFT+U energy contibution is negative ***
 *** possibly due to unphysical Mulliken charges. Check your input, if    ***
 *** this warning persists or try a different method!                     ***

    42 OT LS       0.51E+00    9.7                    -1335.5465663241

 *** WARNING in dft_plus_u.F:1457 :: DFT+U energy contibution is negative ***
 *** possibly due to unphysical Mulliken charges. Check your input, if    ***
 *** this warning persists or try a different method!                     ***

    43 OT CG       0.51E+00   19.3     0.00000940     -1335.5465663486 -3.73E-06

 *** WARNING in dft_plus_u.F:1457 :: DFT+U energy contibution is negative ***
 *** possibly due to unphysical Mulliken charges. Check your input, if    ***
 *** this warning persists or try a different method!                     ***

    44 OT LS       0.58E+00    9.7                    -1335.5465698674

 *** WARNING in dft_plus_u.F:1457 :: DFT+U energy contibution is negative ***
 *** possibly due to unphysical Mulliken charges. Check your input, if    ***
 *** this warning persists or try a different method!                     ***

    45 OT CG       0.58E+00   19.1     0.00000860     -1335.5465699235 -3.57E-06

 *** WARNING in dft_plus_u.F:1457 :: DFT+U energy contibution is negative ***
 *** possibly due to unphysical Mulliken charges. Check your input, if    ***
 *** this warning persists or try a different method!                     ***

    46 OT LS       0.40E+00    9.7                    -1335.5465716001

 *** WARNING in dft_plus_u.F:1457 :: DFT+U energy contibution is negative ***
 *** possibly due to unphysical Mulliken charges. Check your input, if    ***
 *** this warning persists or try a different method!                     ***

    47 OT CG       0.40E+00   19.1     0.00000693     -1335.5465720048 -2.08E-06

 *** WARNING in dft_plus_u.F:1457 :: DFT+U energy contibution is negative ***
 *** possibly due to unphysical Mulliken charges. Check your input, if    ***
 *** this warning persists or try a different method!                     ***

    48 OT LS       0.43E+00    9.7                    -1335.5465734361

 *** WARNING in dft_plus_u.F:1457 :: DFT+U energy contibution is negative ***
 *** possibly due to unphysical Mulliken charges. Check your input, if    ***
 *** this warning persists or try a different method!                     ***

    49 OT CG       0.43E+00   19.1     0.00000582     -1335.5465734412 -1.44E-06

 *** WARNING in dft_plus_u.F:1457 :: DFT+U energy contibution is negative ***
 *** possibly due to unphysical Mulliken charges. Check your input, if    ***
 *** this warning persists or try a different method!                     ***

    50 OT LS       0.49E+00    9.7                    -1335.5465745849

 *** WARNING in dft_plus_u.F:1457 :: DFT+U energy contibution is negative ***
 *** possibly due to unphysical Mulliken charges. Check your input, if    ***
 *** this warning persists or try a different method!                     ***

    51 OT CG       0.49E+00   19.1     0.00000493     -1335.5465746041 -1.16E-06

 *** WARNING in dft_plus_u.F:1457 :: DFT+U energy contibution is negative ***
 *** possibly due to unphysical Mulliken charges. Check your input, if    ***
 *** this warning persists or try a different method!                     ***

    52 OT LS       0.47E+00    9.8                    -1335.5465753963

 *** WARNING in dft_plus_u.F:1457 :: DFT+U energy contibution is negative ***
 *** possibly due to unphysical Mulliken charges. Check your input, if    ***
 *** this warning persists or try a different method!                     ***

    53 OT CG       0.47E+00   19.2     0.00000409     -1335.5465753982 -7.94E-07

 *** WARNING in dft_plus_u.F:1457 :: DFT+U energy contibution is negative ***
 *** possibly due to unphysical Mulliken charges. Check your input, if    ***
 *** this warning persists or try a different method!                     ***

    54 OT LS       0.49E+00    9.7                    -1335.5465759696

 *** WARNING in dft_plus_u.F:1457 :: DFT+U energy contibution is negative ***
 *** possibly due to unphysical Mulliken charges. Check your input, if    ***
 *** this warning persists or try a different method!                     ***

    55 OT CG       0.49E+00   19.1     0.00000393     -1335.5465759708 -5.73E-07

 *** WARNING in dft_plus_u.F:1457 :: DFT+U energy contibution is negative ***
 *** possibly due to unphysical Mulliken charges. Check your input, if    ***
 *** this warning persists or try a different method!                     ***

    56 OT LS       0.45E+00    9.7                    -1335.5465764530

 *** WARNING in dft_plus_u.F:1457 :: DFT+U energy contibution is negative ***
 *** possibly due to unphysical Mulliken charges. Check your input, if    ***
 *** this warning persists or try a different method!                     ***

    57 OT CG       0.45E+00   19.1     0.00000350     -1335.5465764569 -4.86E-07

 *** WARNING in dft_plus_u.F:1457 :: DFT+U energy contibution is negative ***
 *** possibly due to unphysical Mulliken charges. Check your input, if    ***
[...]
 flops    19 x    13 x     2             36309000     100.0%      0.0%      0.0%
 flops     2 x    13 x    19             36309000     100.0%      0.0%      0.0%
 flops     8 x    19 x    15             36644160     100.0%      0.0%      0.0%
 flops    19 x     8 x    15             36644160     100.0%      0.0%      0.0%
 flops    45 x    13 x    31             36814050     100.0%      0.0%      0.0%
 flops   112 x    13 x    31             37914240     100.0%      0.0%      0.0%
 flops    32 x    13 x    20             40535040     100.0%      0.0%      0.0%
 flops    19 x    15 x     2             41559840     100.0%      0.0%      0.0%
 flops     2 x    15 x    19             41559840     100.0%      0.0%      0.0%
 flops   112 x    15 x    31             43747200     100.0%      0.0%      0.0%
 flops    47 x    15 x    31             44365650     100.0%      0.0%      0.0%
 flops     8 x     8 x    13             55397888     100.0%      0.0%      0.0%
 flops    19 x    13 x    19             57489250     100.0%      0.0%      0.0%
 flops    32 x    15 x    31             60412800     100.0%      0.0%      0.0%
 flops    64 x    15 x    31             60412800     100.0%      0.0%      0.0%
 flops     8 x    13 x     2             61152000     100.0%      0.0%      0.0%
 flops     2 x    13 x     8             61152000     100.0%      0.0%      0.0%
 flops    47 x    15 x    32             63844800     100.0%      0.0%      0.0%
 flops    47 x    32 x    15             63844800     100.0%      0.0%      0.0%
 flops     8 x     8 x    15             63920640     100.0%      0.0%      0.0%
 flops    19 x    15 x    19             65803080     100.0%      0.0%      0.0%
 flops     8 x    15 x     2             69995520     100.0%      0.0%      0.0%
 flops     2 x    15 x     8             69995520     100.0%      0.0%      0.0%
 flops    45 x    32 x    13             76527360     100.0%      0.0%      0.0%
 flops    45 x    13 x    32             76527360     100.0%      0.0%      0.0%
 flops    32 x    13 x    31             78536640     100.0%      0.0%      0.0%
 flops    45 x    32 x    12             84188160     100.0%      0.0%      0.0%
 flops    64 x    32 x    15             86937600     100.0%      0.0%      0.0%
 flops    32 x    15 x    32             86937600     100.0%      0.0%      0.0%
 flops    32 x    32 x    15             86937600     100.0%      0.0%      0.0%
 flops    64 x    15 x    32             86937600     100.0%      0.0%      0.0%
 flops   107 x    32 x    12             93187584     100.0%      0.0%      0.0%
 flops   110 x    32 x    12             95800320     100.0%      0.0%      0.0%
 flops    19 x    13 x     8             96824000     100.0%      0.0%      0.0%
 flops     8 x    13 x    19             96824000     100.0%      0.0%      0.0%
 flops   107 x    32 x    13            100775168     100.0%      0.0%      0.0%
 flops   107 x    13 x    32            100775168     100.0%      0.0%      0.0%
 flops   110 x    13 x    32            103600640     100.0%      0.0%      0.0%
 flops   110 x    32 x    13            103600640     100.0%      0.0%      0.0%
 flops    47 x    32 x    12            109912320     100.0%      0.0%      0.0%
 flops    19 x    15 x     8            110826240     100.0%      0.0%      0.0%
 flops     8 x    15 x    19            110826240     100.0%      0.0%      0.0%
 flops   107 x    32 x    15            145348800     100.0%      0.0%      0.0%
 flops   107 x    15 x    32            145348800     100.0%      0.0%      0.0%
 flops   110 x    15 x    32            149424000     100.0%      0.0%      0.0%
 flops   110 x    32 x    15            149424000     100.0%      0.0%      0.0%
 flops    64 x    32 x    12            149667840     100.0%      0.0%      0.0%
 flops     8 x    13 x     8            163072000     100.0%      0.0%      0.0%
 flops    32 x    13 x    32            163258368     100.0%      0.0%      0.0%
 flops    32 x    32 x    13            163258368     100.0%      0.0%      0.0%
 flops     2 x     2 x    32            170601984     100.0%      0.0%      0.0%
 flops     8 x    15 x     8            186654720     100.0%      0.0%      0.0%
 flops    45 x    32 x    20            187084800     100.0%      0.0%      0.0%
 flops   112 x    32 x    12            195084288     100.0%      0.0%      0.0%
 flops   107 x    32 x    20            207083520     100.0%      0.0%      0.0%
 flops   112 x    13 x    32            210968576     100.0%      0.0%      0.0%
 flops   112 x    32 x    13            210968576     100.0%      0.0%      0.0%
 flops   110 x    32 x    20            212889600     100.0%      0.0%      0.0%
 flops    47 x    32 x    20            244249600     100.0%      0.0%      0.0%
 flops    19 x     2 x    32            263837952     100.0%      0.0%      0.0%
 flops     2 x    19 x    32            263837952     100.0%      0.0%      0.0%
 flops   112 x    15 x    32            304281600     100.0%      0.0%      0.0%
 flops   112 x    32 x    15            304281600     100.0%      0.0%      0.0%
 flops    32 x    32 x    12            329269248     100.0%      0.0%      0.0%
 flops    64 x    32 x    20            332595200     100.0%      0.0%      0.0%
 flops    45 x    32 x    31            362476800     100.0%      0.0%      0.0%
 flops   107 x    32 x    31            401224320     100.0%      0.0%      0.0%
 flops   110 x    32 x    31            412473600     100.0%      0.0%      0.0%
 flops   112 x    32 x    20            433520640     100.0%      0.0%      0.0%
 flops     8 x     2 x    32            444358656     100.0%      0.0%      0.0%
 flops     2 x     8 x    32            444358656     100.0%      0.0%      0.0%
 flops    47 x    32 x    31            473233600     100.0%      0.0%      0.0%
 flops    19 x    19 x    32            477421056     100.0%      0.0%      0.0%
 flops     2 x    32 x     2            505774080     100.0%      0.0%      0.0%
 flops    64 x    32 x    31            644403200     100.0%      0.0%      0.0%
 flops    47 x    32 x    32            681011200     100.0%      0.0%      0.0%
 flops     8 x    19 x    32            703567872     100.0%      0.0%      0.0%
 flops    19 x     8 x    32            703567872     100.0%      0.0%      0.0%
 flops    32 x    32 x    20            731709440     100.0%      0.0%      0.0%
 flops    45 x    32 x    32            753500160     100.0%      0.0%      0.0%
 flops    19 x    32 x     2            800808960     100.0%      0.0%      0.0%
 flops     2 x    32 x    19            800808960     100.0%      0.0%      0.0%
 flops   112 x    32 x    31            839946240     100.0%      0.0%      0.0%
 flops    64 x    32 x    32            927334400     100.0%      0.0%      0.0%
 flops     8 x     8 x    32           1227276288     100.0%      0.0%      0.0%
 flops    19 x    32 x    19           1267947520     100.0%      0.0%      0.0%
 flops     8 x    32 x     2           1348730880     100.0%      0.0%      0.0%
 flops     2 x    32 x     8           1348730880     100.0%      0.0%      0.0%
 flops    32 x    32 x    31           1417687040     100.0%      0.0%      0.0%
 flops    19 x    32 x     8           2135490560     100.0%      0.0%      0.0%
 flops     8 x    32 x    19           2135490560     100.0%      0.0%      0.0%
 flops    32 x    32 x    32           2534801408     100.0%      0.0%      0.0%
 flops   107 x    32 x    32           2542635008     100.0%      0.0%      0.0%
 flops   110 x    32 x    32           2613923840     100.0%      0.0%      0.0%
 flops     8 x    32 x     8           3596615680     100.0%      0.0%      0.0%
 flops   112 x    32 x    32           5322899456     100.0%      0.0%      0.0%
 flops inhomo. stacks                  7988412320     100.0%      0.0%      0.0%
 flops total                        55.682650E+09     100.0%      0.0%      0.0%
 flops max/rank                      2.958565E+09     100.0%      0.0%      0.0%
 matmuls inhomo. stacks                     86240     100.0%      0.0%      0.0%
 matmuls total                           11202858     100.0%      0.0%      0.0%
 number of processed stacks               1313781     100.0%      0.0%      0.0%
 average stack size                                     8.5       0.0       0.0
 marketing flops                    58.174652E+09
 -------------------------------------------------------------------------------
 # multiplications                           2267
 max memory usage/rank               1.484612E+09
 # max total images/rank                        5
 # max 3D layers                                1
 # MPI messages exchanged                 5712840
 MPI messages size (bytes):
  total size                        18.642334E+09
  min size                           0.000000E+00
  max size                          34.944000E+03
  average size                       3.263234E+03
 MPI breakdown and total messages size (bytes):
             size <=      128             3707883                        0
       128 < size <=     8192             1449567               8283526344
      8192 < size <=    32768              555282              10355172480
     32768 < size <=   131072                 108                  3714984
    131072 < size <=  4194304                   0                        0
   4194304 < size <= 16777216                   0                        0
  16777216 < size                               0                        0
 -------------------------------------------------------------------------------

 *** WARNING in dbcsr/mm/dbcsr_mm.F:268 :: Using a non-square number of ***
 *** MPI ranks might lead to poor performance.                          ***
 *** Used ranks: 40                                                     ***
 *** Suggested: 36 81                                                   ***

 -------------------------------------------------------------------------------

 MEMORY| Estimated peak process memory [MiB]                                1417

 -------------------------------------------------------------------------------
 ----                             MULTIGRID INFO                            ----
 -------------------------------------------------------------------------------
 count for grid        1:        1213530          cutoff [a.u.]          325.00
 count for grid        2:         509216          cutoff [a.u.]          108.33
 count for grid        3:         312744          cutoff [a.u.]           36.11
 count for grid        4:         105425          cutoff [a.u.]           12.04
 count for grid        5:           3600          cutoff [a.u.]            4.01
 count for grid        6:              0          cutoff [a.u.]            1.34
 count for grid        7:              0          cutoff [a.u.]            0.45
 count for grid        8:              0          cutoff [a.u.]            0.15
 count for grid        9:              0          cutoff [a.u.]            0.05
 count for grid       10:              0          cutoff [a.u.]            0.02
 total gridlevel count  :        2144515

 -------------------------------------------------------------------------------
 -                                                                             -
 -                         MESSAGE PASSING PERFORMANCE                         -
 -                                                                             -
 -------------------------------------------------------------------------------

 ROUTINE             CALLS      AVE VOLUME [Bytes]
 MP_Group               33
 MP_Bcast             1116                 290906.
 MP_Allreduce        13456                    410.
 MP_Sync              1486
 MP_Alltoall         10280               19706055.
 MP_ISendRecv        76752                 123959.
 MP_Wait            319172
 MP_ISend           325234                  52897.
 MP_IRecv           328382                  52134.
 MP_Recv                90                  58212.
 MP_Memory          297800
 -------------------------------------------------------------------------------


 -------------------------------------------------------------------------------
 -                                                                             -
 -                           R E F E R E N C E S                               -
 -                                                                             -
 -------------------------------------------------------------------------------
 
 CP2K version 6.1, the CP2K developers group (2018).
 CP2K is freely available from https://www.cp2k.org/ .

 Schuett, Ole; Messmer, Peter; Hutter, Juerg; VandeVondele, Joost. 
 Electronic Structure Calculations on Graphics Processing Units, John Wiley & Sons, Ltd, 173-190 (2016). 
 GPU-Accelerated Sparse Matrix-Matrix Multiplication for Linear Scaling Density Functional Theory.
 http://dx.doi.org/10.1002/9781118670712.ch8


 Borstnik, U; VandeVondele, J; Weber, V; Hutter, J. 
 PARALLEL COMPUTING, 40 (5-6), 47-58 (2014). 
 Sparse matrix multiplication: The distributed block-compressed sparse
 row library.
 http://dx.doi.org/10.1016/j.parco.2014.03.012


 Hutter, J; Iannuzzi, M; Schiffmann, F; VandeVondele, J. 
 WILEY INTERDISCIPLINARY REVIEWS-COMPUTATIONAL MOLECULAR SCIENCE, 4 (1), 15-25 (2014). 
 CP2K: atomistic simulations of condensed matter systems.
 http://dx.doi.org/10.1002/wcms.1159


 Krack, M. 
 THEORETICAL CHEMISTRY ACCOUNTS, 114 (1-3), 145-152 (2005). 
 Pseudopotentials for H to Kr optimized for gradient-corrected
 exchange-correlation functionals.
 http://dx.doi.org/10.1007/s00214-005-0655-y


 VandeVondele, J; Krack, M; Mohamed, F; Parrinello, M; Chassaing, T;
 Hutter, J. COMPUTER PHYSICS COMMUNICATIONS, 167 (2), 103-128 (2005). 
 QUICKSTEP: Fast and accurate density functional calculations using a
 mixed Gaussian and plane waves approach.
 http://dx.doi.org/10.1016/j.cpc.2004.12.014


 Frigo, M; Johnson, SG. 
 PROCEEDINGS OF THE IEEE, 93 (2), 216-231 (2005). 
 The design and implementation of FFTW3.
 http://dx.doi.org/10.1109/JPROC.2004.840301


 VandeVondele, J; Hutter, J. 
 JOURNAL OF CHEMICAL PHYSICS, 118 (10), 4365-4369 (2003). 
 An efficient orbital transformation method for electronic structure
 calculations.
 http://dx.doi.org/10.1063/1.1543154


 Hartwigsen, C; Goedecker, S; Hutter, J. 
 PHYSICAL REVIEW B, 58 (7), 3641-3662 (1998). 
 Relativistic separable dual-space Gaussian pseudopotentials from H to Rn.
 http://dx.doi.org/10.1103/PhysRevB.58.3641


 Dudarev, SL; Botton, GA; Savrasov, SY; Humphreys, CJ; Sutton, AP. 
 PHYSICAL REVIEW B, 57 (3), 1505-1509 (1998). 
 Electron-energy-loss spectra and the structural stability of
 nickel oxide: An LSDA+U study.
 http://dx.doi.org/10.1103/PhysRevB.57.1505


 Lippert, G; Hutter, J; Parrinello, M. 
 MOLECULAR PHYSICS, 92 (3), 477-487 (1997). 
 A hybrid Gaussian and plane wave density functional scheme.
 http://dx.doi.org/10.1080/002689797170220


 Dudarev, SL; Manh, DN; Sutton, AP. 
 PHILOSOPHICAL MAGAZINE B, 75 (5), 613-628 (1997). 
 Effect of Mott-Hubbard correlations on the electronic
 structure and structural stability of uranium dioxide.
 http://dx.doi.org/10.1080/13642819708202343


 Goedecker, S; Teter, M; Hutter, J. 
 PHYSICAL REVIEW B, 54 (3), 1703-1710 (1996). 
 Separable dual-space Gaussian pseudopotentials.
 http://dx.doi.org/10.1103/PhysRevB.54.1703


 BECKE, AD. PHYSICAL REVIEW A, 38 (6), 3098-3100 (1988). 
 DENSITY-FUNCTIONAL EXCHANGE-ENERGY APPROXIMATION WITH CORRECT
 ASYMPTOTIC-BEHAVIOR.
 http://dx.doi.org/10.1103/PhysRevA.38.3098


 LEE, CT; YANG, WT; PARR, RG. 
 PHYSICAL REVIEW B, 37 (2), 785-789 (1988). 
 DEVELOPMENT OF THE COLLE-SALVETTI CORRELATION-ENERGY FORMULA INTO A
 FUNCTIONAL OF THE ELECTRON-DENSITY.
 http://dx.doi.org/10.1103/PhysRevB.37.785


 -------------------------------------------------------------------------------
 -                                                                             -
 -                                T I M I N G                                  -
 -                                                                             -
 -------------------------------------------------------------------------------
 SUBROUTINE                       CALLS  ASD         SELF TIME        TOTAL TIME
                                MAXIMUM       AVERAGE  MAXIMUM  AVERAGE  MAXIMUM
 CP2K                                 1  1.0    0.019    0.028 1180.394 1180.394
 qs_energies                          1  2.0    0.000    0.000 1178.731 1178.731
 scf_env_do_scf                       1  3.0    0.000    0.000 1172.638 1172.638
 scf_env_do_scf_inner_loop           81  4.0    0.003    0.008 1157.377 1157.407
 pw_transfer                       3642  9.3    0.277    0.323  857.728  864.353
 fft_wrap_pw1pw2                   3480 10.3    0.046    0.052  851.105  857.687
 qs_ks_update_qs_env                 82  5.0    0.003    0.003  838.491  838.522
 rebuild_ks_matrix                   81  6.0    0.000    0.000  838.426  838.456
 qs_ks_build_kohn_sham_matrix        81  7.0    0.024    0.027  838.426  838.456
 fft_wrap_pw1pw2_330               1266 11.9   67.428   80.392  815.466  819.346
 fft3d_ps                          3480 12.3  366.515  378.751  668.646  679.190
 qs_vxc_create                       81  8.0    0.002    0.003  664.717  665.799
 xc_vxc_pw_create                    41  9.0   11.110   13.106  457.323  458.405
 xc_rho_set_and_dset_create          81 10.0   17.195   18.865  418.585  422.543
 qs_rho_update_rho                   82  5.0    0.001    0.001  333.969  333.976
 calculate_rho_elec                 164  6.0    8.334   29.142  333.968  333.975
 density_rs2pw                      164  7.0    0.020    0.024  310.782  317.267
 xc_exc_calc                         40  9.0    0.458    0.508  207.392  207.396
 x_to_yz                           1101 14.4   92.408   96.418  195.961  203.896
 mp_alltoall_z22v                  3480 14.3  174.821  187.462  174.821  187.462
 rs_pw_transfer                    2464  9.0    0.032    0.043  109.334  114.098
 sum_up_and_integrate                41  8.0    1.567    1.721  112.891  112.900
 yz_to_x                           1149 12.6   34.663   38.155  105.911  111.586
 integrate_v_rspace                  82  9.0    2.163    7.044  111.323  111.371
 potential_pw2rs                     82 10.0    0.132    0.191  104.117  104.181
 pw_scatter_p                      1511 13.5   74.055   79.791   74.055   79.791
 pw_derive                          732 10.7   53.849   54.726   53.849   54.726
 rs_pw_transfer_RS2PW_330           166  9.0   21.789   25.700   43.484   50.001
 pw_gather_p                       1969 11.4   38.069   42.365   38.069   42.365
 mp_waitany                       21824 11.0   32.042   40.130   32.042   40.130
 pw_copy                           1712 10.8   32.855   34.158   32.855   34.158
 fft_wrap_pw1pw2_110                246 11.0    2.505    2.712   28.943   33.036
 pw_axpy                           2295  8.4   26.311   27.242   26.311   27.242
 rs_pw_transfer_PW2RS_330            84 11.9   13.458   14.765   23.784   25.237
 -------------------------------------------------------------------------------

 The number of warnings for this run is : 82
 
 -------------------------------------------------------------------------------
  **** **** ******  **  PROGRAM ENDED AT                 2019-08-08 08:54:07.398
 ***** ** ***  *** **   PROGRAM RAN ON            cpn-p28-14.cbls.ccr.buffalo.ed
 **    ****   ******    PROGRAM RAN BY                                  pavankum
 ***** **    ** ** **   PROGRAM PROCESS ID                                 52103
  **** **  *******  **  PROGRAM STOPPED IN /projects/academic/mdupuis2/pavan/VAB
                                           _calculation/results_for_paper/3.1D_F
                                           e_7units/blyp_plusU7/point_0.4
