      77
 i =        1, E =     -1335.5343411463
 Fe        18.3479315206       -0.0000254455       -0.0000386007
 Fe        15.2620266043        0.0000242191        0.0000233696
 Fe        12.1726754950       -0.0001683482       -0.0003289329
 Fe         9.1686806285        0.0000291528       -0.0000037224
 Fe         6.1646521955        0.0002199090        0.0005698870
 Fe         3.0746616042       -0.0000381709       -0.0000756533
 Fe        -0.0321929869        0.0001032340       -0.0006662585
  O        18.3275830704       -0.0000167902        2.1454403017
  O        18.3273325485        0.0000305010       -2.1454564358
  O        19.8539444848       -1.2670841611       -0.0000019987
  O        19.8538728989        1.2671119471        0.0000087669
  O        15.2923561124       -0.0004471856        2.1428836609
  O        15.2923426391        0.0004778644       -2.1430393179
  O        16.8238854300       -1.2457884301       -0.0000416116
  O        16.8239141638        1.2457900016        0.0003687804
  O        12.3017666925        0.0038961941        2.1368239469
  O        12.3060218556       -0.0042463942       -2.1378019823
  O        13.7725398824       -1.2484446180       -0.0004765559
  O        13.7724338897        1.2483799127        0.0005213129
  O         9.1702928538       -0.0026287094        2.2767147401
  O         9.1702777349        0.0026457900       -2.2767197094
  O        10.7943790365       -1.3138628797        0.0083804397
  O        10.7946156834        1.3136203619       -0.0107480626
  O         6.0283613625        0.0029341258        2.1500053957
  O         6.0309823147       -0.0027426647       -2.1484822384
  O         7.5438674620       -1.3171277865        0.0137676141
  O         7.5441051663        1.3175220433       -0.0108107397
  O         3.0362870743       -0.0005501455        2.1437792656
  O         3.0362275435        0.0005205114       -2.1437362321
  O         4.5660532495       -1.2506965288       -0.0006824621
  O         4.5659071522        1.2507638809        0.0005899291
  O         0.0006245661       -0.0000499629        2.1464769112
  O         0.0003486089        0.0000262263       -2.1470320055
  O         1.5065370189       -1.2410025994       -0.0003907165
  O         1.5066186735        1.2410369565        0.0000863165
  H        18.2812548538       -0.8150809148       -2.6937906565
  H        18.2809319882        0.8151399705       -2.6937633821
  H        18.2812073419       -0.8151064613        2.6937815993
  H        18.2814515878        0.8150621111        2.6938196979
  H        19.8603605053       -2.2457956828        0.0000118928
  H        19.8603840218        2.2458164366       -0.0000175581
  H        15.1513905819       -0.8096468647       -2.6827868908
  H        15.1496768005        0.8102520878       -2.6828281699
  H        15.1500113624       -0.8100379803        2.6830893168
  H        15.1516542869        0.8094849077        2.6830393858
  H        16.8020636539       -2.2273068516       -0.0000002866
  H        16.8020552018        2.2273087742        0.0001021628
  H        12.0988655638       -0.7997476195       -2.6803409642
  H        12.0901445640        0.7934045633       -2.6749018681
  H        12.0893060042       -0.7940088752        2.6744892850
  H        12.0980097404        0.7999400573        2.6795499019
  H        13.7415099341       -2.2283250494        0.0015145769
  H        13.7414276279        2.2282705905       -0.0008823155
  H         9.1670060868       -0.8058047025       -2.8357473550
  H         9.1669705279        0.8098426980       -2.8375970933
  H         9.1668601621       -0.8098260060        2.8375910844
  H         9.1667259743        0.8058044283        2.8357642184
  H        10.7844718072       -2.2914293930       -0.0027352250
  H        10.7845975632        2.2911970985        0.0008580923
  H         6.2363616748       -0.8032202605       -2.6838323712
  H         6.2454002775        0.7986727666       -2.6795588888
  H         6.2446649477       -0.7985914822        2.6803340846
  H         6.2356159574        0.8033231128        2.6848932237
  H         7.5513531709       -2.2945584878       -0.0008838174
  H         7.5514673689        2.2949277375        0.0027575524
  H         3.1811341564       -0.8092371516       -2.6832582896
  H         3.1825644591        0.8099528918       -2.6833212124
  H         3.1828618032       -0.8100964557        2.6830728678
  H         3.1814469382        0.8093205718        2.6830115092
  H         4.5942842303       -2.2307774026        0.0008224086
  H         4.5941945827        2.2308296790       -0.0014750385
  H         0.0511506211       -0.8154951744       -2.6943456613
  H         0.0510526404        0.8155727296       -2.6943144520
  H         0.0512959342       -0.8153109097        2.6942357405
  H         0.0513673754        0.8152016867        2.6942480455
  H         1.5335771335       -2.2234515989       -0.0001404474
  H         1.5335660924        2.2234819577        0.0000232136
      77
 i =        2, E =     -1335.5353863809
 Fe        18.2959292181        0.0002141738        0.0003437664
 Fe        15.2549267202       -0.0002642642        0.0000971293
 Fe        12.2340685813        0.0020887295        0.0039082217
 Fe         9.1746727884        0.0002381921        0.0000990997
 Fe         6.1338888436       -0.0037257007       -0.0124785978
 Fe         3.0892158009        0.0004380508       -0.0000578305
 Fe        -0.0042535370       -0.0000647765       -0.0002592496
  O        18.3260178386       -0.0000421964        2.1366619426
  O        18.3257225181        0.0000540970       -2.1363507476
  O        19.8471241340       -1.2384288228       -0.0001832261
  O        19.8473163470        1.2385511195       -0.0001549400
  O        15.3001664299       -0.0008084461        2.1432709565
  O        15.3007408135        0.0008689273       -2.1430851849
  O        16.7980988187       -1.2515914038       -0.0001579861
  O        16.7977909232        1.2515673910        0.0006894180
  O        12.2926164962        0.0064146501        2.1449278912
  O        12.2954955417       -0.0073042084       -2.1446875057
  O        13.7958148495       -1.2594409151       -0.0003752552
  O        13.7971775143        1.2602013065        0.0007630021
  O         9.1709832358       -0.0020777785        2.2673733118
  O         9.1714851230        0.0021058914       -2.2673631955
  O        10.8294968497       -1.2868662772        0.0163337109
  O        10.8268161195        1.2870144957       -0.0205362029
  O         6.0352859134        0.0049839050        2.1399306173
  O         6.0376621437       -0.0045945265       -2.1476734196
  O         7.5300707785       -1.2970369157        0.0225305404
  O         7.5260977900        1.2963628666       -0.0184753599
  O         3.0141488623       -0.0009681377        2.1442858790
  O         3.0143092090        0.0009054740       -2.1443539822
  O         4.5556135544       -1.2571784978       -0.0011734492
  O         4.5579414839        1.2559086467        0.0009200293
  O        -0.0135011062       -0.0000747265        2.1380581655
  O        -0.0140758354        0.0000715446       -2.1375597602
  O         1.5380240662       -1.2394072939       -0.0014554984
  O         1.5376091541        1.2395177004        0.0001675261
  H        18.2776919929       -0.8187839078       -2.7014121500
  H        18.2773258435        0.8188741538       -2.7013992112
  H        18.2776543271       -0.8190189001        2.7014550246
  H        18.2779352540        0.8189475883        2.7014623452
  H        19.8593220499       -2.2364451524        0.0000448194
  H        19.8592494236        2.2365645275        0.0000087282
  H        15.1448501110       -0.8192947146       -2.6878281465
  H        15.1429195974        0.8203655063       -2.6881394981
  H        15.1434310546       -0.8205679868        2.6882641787
  H        15.1452897458        0.8195785085        2.6879831541
  H        16.8044610356       -2.2453275206        0.0000067326
  H        16.8045285333        2.2453107963        0.0001046396
  H        12.0998978614       -0.8296581964       -2.6754468266
  H        12.0910924188        0.8192319386       -2.6675205361
  H        12.0899018733       -0.8204024511        2.6675040387
  H        12.0988616897        0.8297108306        2.6746827296
  H        13.7426724918       -2.2495141339        0.0016273704
  H        13.7425054754        2.2500857272       -0.0010671301
  H         9.1669612277       -0.8158085758       -2.8382797710
  H         9.1667817462        0.8204351040       -2.8377772172
  H         9.1667409956       -0.8204277108        2.8377485698
  H         9.1667532589        0.8158309303        2.8382815740
  H        10.7862430977       -2.2817188702       -0.0012883639
  H        10.7861994814        2.2817450915       -0.0005620740
  H         6.2351432240       -0.8251831454       -2.6797064779
  H         6.2447748171        0.8183563377       -2.6735161142
  H         6.2433912231       -0.8139731892        2.6727802817
  H         6.2338592270        0.8212642920        2.6793513480
  H         7.5496681112       -2.2915178126        0.0006439012
  H         7.5495956284        2.2910317090        0.0012358084
  H         3.1873162821       -0.8181244669       -2.6870956646
  H         3.1889791689        0.8193048677       -2.6873824226
  H         3.1893751058       -0.8192175756        2.6873250288
  H         3.1877263721        0.8179437235        2.6869901423
  H         4.5935068384       -2.2487329935        0.0010707773
  H         4.5932942468        2.2478033538       -0.0016455857
  H         0.0554476944       -0.8181122043       -2.7017732838
  H         0.0553739470        0.8182336239       -2.7018052818
  H         0.0556420210       -0.8186538787        2.7016939218
  H         0.0556885108        0.8184983952        2.7017058660
  H         1.5312976148       -2.2350736821       -0.0001135985
  H         1.5314103745        2.2351368447        0.0000444370
      77
 i =        3, E =     -1335.5375592092
 Fe        18.3188427301       -0.0000451293        0.0002208021
 Fe        15.2644782400        0.0001086222       -0.0002852580
 Fe        12.2247956397        0.0012949829        0.0022961853
 Fe         9.1743085163       -0.0000775501        0.0006857655
 Fe         6.1367327374       -0.0013648803       -0.0059382787
 Fe         3.0764379074       -0.0007471902        0.0006761794
 Fe         0.0345516660        0.0009323772        0.0022783021
  O        18.3131127284       -0.0000555406        2.1400179704
  O        18.3125092702        0.0001146798       -2.1399180926
  O        19.8821406516       -1.2345306879       -0.0003586084
  O        19.8813899707        1.2348932502       -0.0002930077
  O        15.3062541627       -0.0011849554        2.1460444499
  O        15.3076670793        0.0012343605       -2.1462836795
  O        16.8199705227       -1.2589611594       -0.0002873112
  O        16.8202226909        1.2593552733        0.0016990720
  O        12.2918456642        0.0074241138        2.1472727522
  O        12.2926079659       -0.0079552195       -2.1479718898
  O        13.7934018478       -1.2627321794        0.0004295875
  O        13.7939571982        1.2633586328        0.0015696477
  O         9.1691043035       -0.0014044510        2.2658168766
  O         9.1669678570        0.0014673462       -2.2657351660
  O        10.8224071874       -1.2845607981        0.0200916468
  O        10.8215172684        1.2865626676       -0.0211717432
  O         6.0484212682        0.0062102705        2.1484374618
  O         6.0488604453       -0.0060795223       -2.1471018665
  O         7.5297878509       -1.2930184229        0.0183912143
  O         7.5305275825        1.2909568777       -0.0218770082
  O         3.0100184155       -0.0011169159        2.1434321644
  O         3.0110285623        0.0011232400       -2.1431042271
  O         4.5545850117       -1.2536939382       -0.0036227744
  O         4.5537386177        1.2522169147       -0.0010512453
  O        -0.0289299639       -0.0001439614        2.1430657545
  O        -0.0299883057        0.0001299095       -2.1413333995
  O         1.5313082662       -1.2532005560       -0.0036260440
  O         1.5325898564        1.2535134425        0.0003261383
  H        18.2767427733       -0.8161474324       -2.7052624286
  H        18.2763549767        0.8162969188       -2.7053305051
  H        18.2767580306       -0.8162240563        2.7054212539
  H        18.2770538241        0.8161226801        2.7054369865
  H        19.8576953813       -2.2292148140        0.0000293710
  H        19.8577742941        2.2294863299        0.0000009529
  H        15.1424969564       -0.8140771685       -2.6911368865
  H        15.1405054401        0.8156441633       -2.6916760544
  H        15.1411690171       -0.8156335575        2.6919687327
  H        15.1431478135        0.8141608519        2.6914097256
  H        16.8018254464       -2.2502142351       -0.0000263115
  H        16.8016865742        2.2505947234        0.0001036013
  H        12.0975892121       -0.8256533174       -2.6792908798
  H        12.0882588469        0.8136601114       -2.6711165347
  H        12.0870560641       -0.8136332979        2.6710939745
  H        12.0965200866        0.8245291336        2.6794289459
  H        13.7455078270       -2.2518130875        0.0015898974
  H        13.7460462599        2.2523146030       -0.0013198615
  H         9.1677145811       -0.8118345911       -2.8387692856
  H         9.1674178033        0.8165583945       -2.8363784388
  H         9.1667697817       -0.8165975988        2.8362617030
  H         9.1668392798        0.8119333991        2.8387382969
  H        10.7910406212       -2.2758766004        0.0001594635
  H        10.7903100249        2.2777929507       -0.0023657090
  H         6.2360475624       -0.8217810892       -2.6840611659
  H         6.2462177811        0.8132950826       -2.6759194079
  H         6.2450061382       -0.8156722843        2.6739406324
  H         6.2349058694        0.8248387823        2.6813627460
  H         7.5489649608       -2.2841240978        0.0029164134
  H         7.5477501098        2.2821990632       -0.0001731221
  H         3.1880926023       -0.8122788120       -2.6882257419
  H         3.1898926242        0.8137409367       -2.6887018823
  H         3.1906839876       -0.8138077096        2.6883691343
  H         3.1889900775        0.8122881942        2.6879845901
  H         4.5917173861       -2.2433477684        0.0015769161
  H         4.5925821927        2.2419318365       -0.0013676689
  H         0.0570525835       -0.8147950110       -2.7044853877
  H         0.0569717984        0.8149814785       -2.7045712689
  H         0.0573900701       -0.8157909514        2.7049302957
  H         0.0574373088        0.8155615878        2.7048577967
  H         1.5320802415       -2.2430813000       -0.0001352529
  H         1.5319357673        2.2434292665        0.0001110143
      77
 i =        4, E =     -1335.5388871392
 Fe        18.3175231346        0.0006684240        0.0000027242
 Fe        15.2670133553        0.0000250800        0.0000661673
 Fe        12.1985107647        0.0002602863        0.0008436294
 Fe         9.1735416902        0.0002418145        0.0007405426
 Fe         6.1494428541       -0.0006570855       -0.0023102741
 Fe         3.0701802012        0.0005789507       -0.0002035123
 Fe         0.0126966271        0.0001639008        0.0012884721
  O        18.3045908991       -0.0001302190        2.1396922835
  O        18.3041304129        0.0001799237       -2.1395546289
  O        19.8540242747       -1.2378923419       -0.0005082333
  O        19.8549695978        1.2393453233       -0.0002863013
  O        15.3145730345       -0.0016805667        2.1476565308
  O        15.3163930782        0.0017570056       -2.1472751889
  O        16.8237141017       -1.2601137229       -0.0004284274
  O        16.8234464955        1.2604193925        0.0021836373
  O        12.2924645013        0.0084132445        2.1502020353
  O        12.2924195951       -0.0084697220       -2.1503691012
  O        13.7839055520       -1.2581048965        0.0012206120
  O        13.7840333053        1.2586333816        0.0020068099
  O         9.1719535167       -0.0003795596        2.2671720681
  O         9.1744222345        0.0004277497       -2.2673735342
  O        10.8085825061       -1.2899605868        0.0194771509
  O        10.8089992196        1.2916192340       -0.0184941406
  O         6.0519225043        0.0070820702        2.1522112725
  O         6.0525694147       -0.0072382742       -2.1508821356
  O         7.5355590607       -1.2937927601        0.0144126818
  O         7.5363565572        1.2923343993       -0.0188704425
  O         3.0113531594       -0.0015014467        2.1441172666
  O         3.0115224461        0.0013064700       -2.1448182466
  O         4.5608071764       -1.2537966119       -0.0059974576
  O         4.5615479597        1.2529727109       -0.0027963887
  O        -0.0311059930       -0.0001581723        2.1428064120
  O        -0.0319457571        0.0003741640       -2.1429388376
  O         1.5102642234       -1.2548757592       -0.0046336532
  O         1.5094302121        1.2558412222        0.0014057771
  H        18.2763172745       -0.8103185335       -2.7048175892
  H        18.2759211728        0.8105433709       -2.7049517755
  H        18.2762510234       -0.8104809971        2.7051191415
  H        18.2765301207        0.8103124483        2.7050222706
  H        19.8600252949       -2.2240994067       -0.0001437632
  H        19.8597769239        2.2254668467       -0.0001225066
  H        15.1423369508       -0.8065598625       -2.6908906421
  H        15.1402265287        0.8088528927       -2.6917816775
  H        15.1407786939       -0.8090929233        2.6922753840
  H        15.1429281425        0.8069188698        2.6914185022
  H        16.8017106509       -2.2452324967       -0.0000592477
  H        16.8016995563        2.2454409941        0.0001930888
  H        12.0945003203       -0.8156830526       -2.6848669052
  H        12.0842551815        0.8021665705       -2.6764962152
  H        12.0833237096       -0.8023763685        2.6759984667
  H        12.0936277679        0.8150426078        2.6854168779
  H        13.7509473715       -2.2431710830        0.0016971026
  H        13.7518734421        2.2437926271       -0.0014722344
  H         9.1680884335       -0.8077118155       -2.8377589328
  H         9.1677959546        0.8122009161       -2.8328948925
  H         9.1667468066       -0.8120196582        2.8328589114
  H         9.1667654083        0.8076283243        2.8377149549
  H        10.7957669957       -2.2733066668        0.0022223956
  H        10.7946120236        2.2749693953       -0.0046438704
  H         6.2385860354       -0.8153763192       -2.6886319277
  H         6.2496058242        0.8051074928       -2.6791745609
  H         6.2490517260       -0.8063042275        2.6783150593
  H         6.2381244913        0.8171787152        2.6863938612
  H         7.5480250092       -2.2776293747        0.0050051183
  H         7.5467791464        2.2760857493       -0.0023921751
  H         3.1877355305       -0.8076368369       -2.6869392560
  H         3.1897095398        0.8094090112       -2.6874603273
  H         3.1907336076       -0.8090561953        2.6872500225
  H         3.1889146944        0.8071069975        2.6864175412
  H         4.5896479639       -2.2392490139        0.0016036347
  H         4.5906045123        2.2382707451       -0.0014630371
  H         0.0565112861       -0.8102153064       -2.7028900942
  H         0.0563699900        0.8105845253       -2.7033726555
  H         0.0568514304       -0.8097023964        2.7041868152
  H         0.0569769416        0.8094209821        2.7041486531
  H         1.5342462463       -2.2401077811       -0.0005614824
  H         1.5346398004        2.2409723017        0.0000046549
      77
 i =        5, E =     -1335.5398218917
 Fe        18.3203010909        0.0001469127       -0.0000257930
 Fe        15.2616452644        0.0000079194        0.0004693089
 Fe        12.1958647437        0.0006149656        0.0010897845
 Fe         9.1725237701        0.0006193401        0.0004974556
 Fe         6.1547602996       -0.0006444119       -0.0026745676
 Fe         3.0773899118        0.0002077121       -0.0012199145
 Fe         0.0073382115        0.0009581784       -0.0004535494
  O        18.3101571903       -0.0001287602        2.1392510479
  O        18.3099271178        0.0003240260       -2.1390492832
  O        19.8597677945       -1.2409311094       -0.0004625193
  O        19.8589978332        1.2428594182       -0.0001409131
  O        15.3210104975       -0.0020459196        2.1473978446
  O        15.3219769407        0.0021127223       -2.1468565311
  O        16.8171374717       -1.2557959434       -0.0006371198
  O        16.8173284549        1.2559597678        0.0024302001
  O        12.2906059903        0.0093351557        2.1524961987
  O        12.2913912484       -0.0094215633       -2.1520836799
  O        13.7808406043       -1.2566342745        0.0015755303
  O        13.7813671428        1.2571870523        0.0018601222
  O         9.1684999476        0.0004773141        2.2673650333
  O         9.1656534301       -0.0004047719       -2.2678085665
  O        10.8078331117       -1.2886398915        0.0186133481
  O        10.8075310384        1.2897997405       -0.0181014586
  O         6.0484322653        0.0077450743        2.1512140927
  O         6.0496662008       -0.0079046137       -2.1526836388
  O         7.5366411344       -1.2927116121        0.0157855384
  O         7.5362926070        1.2921814726       -0.0178423514
  O         3.0081264490       -0.0017805602        2.1445982612
  O         3.0076228079        0.0017179806       -2.1456923249
  O         4.5628222554       -1.2527007383       -0.0063392734
  O         4.5632537525        1.2519936543       -0.0033353815
  O        -0.0316636420       -0.0003219935        2.1417213969
  O        -0.0321560429        0.0005230201       -2.1422347300
  O         1.5183365894       -1.2514340781       -0.0057342730
  O         1.5184886175        1.2527447983        0.0024862807
  H        18.2749616255       -0.8122204796       -2.7034997607
  H        18.2745630119        0.8125670606       -2.7038486586
  H        18.2747947065       -0.8125335458        2.7038593211
  H        18.2750664890        0.8123431610        2.7037982032
  H        19.8594517426       -2.2284928749       -0.0002545876
  H        19.8594307843        2.2303206227       -0.0001647764
  H        15.1424015179       -0.8088771050       -2.6881684703
  H        15.1400942597        0.8117182928       -2.6892258424
  H        15.1404407620       -0.8118039124        2.6898456029
  H        15.1427599746        0.8090799773        2.6888057370
  H        16.8026449052       -2.2432609361       -0.0000545406
  H        16.8025025378        2.2434219811        0.0002869352
  H        12.0936859774       -0.8202580185       -2.6846506410
  H        12.0828401469        0.8051242182       -2.6756542273
  H        12.0821722534       -0.8058794212        2.6751675606
  H        12.0930763489        0.8201870854        2.6851268490
  H        13.7530683890       -2.2431536443        0.0018770971
  H        13.7538604648        2.2437314462       -0.0014666089
  H         9.1680733929       -0.8108260031       -2.8375522691
  H         9.1679029722        0.8149129576       -2.8309817190
  H         9.1668748681       -0.8146910684        2.8308073640
  H         9.1667850911        0.8107327504        2.8373876713
  H        10.7962359031       -2.2737339010        0.0034594622
  H        10.7953161101        2.2749236759       -0.0057738049
  H         6.2397630083       -0.8187289988       -2.6883629571
  H         6.2513799924        0.8070498034       -2.6786138277
  H         6.2511859278       -0.8057856117        2.6785802247
  H         6.2397145829        0.8180218944        2.6869973512
  H         7.5481118821       -2.2780159307        0.0057267528
  H         7.5470694628        2.2773019744       -0.0036844067
  H         3.1888305449       -0.8101554294       -2.6851726798
  H         3.1910022815        0.8123441019       -2.6861489247
  H         3.1918977425       -0.8120456196        2.6856084151
  H         3.1898774278        0.8097136092        2.6846068667
  H         4.5881895227       -2.2394475780        0.0012778771
  H         4.5891936626        2.2386698642       -0.0017400621
  H         0.0566256494       -0.8120584534       -2.7018105740
  H         0.0563840774        0.8125934775       -2.7024732670
  H         0.0567108386       -0.8120056148        2.7027859262
  H         0.0569274630        0.8115984347        2.7024814835
  H         1.5328649136       -2.2390135448       -0.0009179622
  H         1.5329673914        2.2402000645       -0.0000282781
      77
 i =        6, E =     -1335.5295725983
 Fe        18.3362961809       -0.0000690812        0.0000755844
 Fe        15.2416592830       -0.0000841120        0.0028810135
 Fe        12.1798380059        0.0017188596        0.0017214807
 Fe         9.1701518836        0.0036329800       -0.0008177234
 Fe         6.2191852792        0.0042029502        0.0204705535
 Fe         3.1056985868       -0.0012991187       -0.0069080797
 Fe        -0.0677861434       -0.0060275117       -0.0018532461
  O        18.3360841341       -0.0003294731        2.1355743896
  O        18.3369316570        0.0012063435       -2.1350273084
  O        19.8726440334       -1.2744073830       -0.0006334577
  O        19.8728892407        1.2755202159        0.0002792068
  O        15.3572062763       -0.0044129953        2.1432333147
  O        15.3525082627        0.0044303021       -2.1418527538
  O        16.7896519044       -1.2351491229       -0.0023463441
  O        16.7903185598        1.2349904647        0.0046598350
  O        12.2776034394        0.0153500368        2.1639891060
  O        12.2803811079       -0.0153559956       -2.1615952498
  O        13.7684627476       -1.2456210519        0.0047601537
  O        13.7701347561        1.2465356796        0.0009164914
  O         9.1619398198        0.0067827333        2.2666349775
  O         9.1508006887       -0.0064063524       -2.2688152471
  O        10.8052169341       -1.2841813898        0.0127393028
  O        10.8027721663        1.2830765723       -0.0150388508
  O         6.0393522918        0.0122585198        2.1567349515
  O         6.0427797811       -0.0125030855       -2.1537681261
  O         7.5530621134       -1.2967564025        0.0228018414
  O         7.5508717009        1.3036074633       -0.0125800596
  O         2.9965410587       -0.0038965780        2.1441168100
  O         2.9929631812        0.0045760145       -2.1470215435
  O         4.5790880737       -1.2357725510       -0.0094997285
  O         4.5752479055        1.2371862465       -0.0085688532
  O        -0.0394742743       -0.0014393858        2.1371489645
  O        -0.0377943792        0.0018616375       -2.1337091998
  O         1.5426405737       -1.2242692271       -0.0135753333
  O         1.5407410932        1.2231692033        0.0087606235
  H        18.2655195435       -0.8199124459       -2.6956732178
  H        18.2651234035        0.8211172176       -2.6971766268
  H        18.2648497024       -0.8211347120        2.6965657942
  H        18.2650825667        0.8206674231        2.6963573614
  H        19.8566155225       -2.2647949196       -0.0008551374
  H        19.8573139486        2.2664740907       -0.0002427495
  H        15.1435701324       -0.8176935958       -2.6715892918
  H        15.1399435262        0.8242562437       -2.6735607613
  H        15.1391175535       -0.8233434974        2.6748532768
  H        15.1426324284        0.8169087493        2.6727930301
  H        16.8074024016       -2.2323959152       -0.0000305914
  H        16.8069540714        2.2324304150        0.0009904897
  H        12.0879452686       -0.8424776425       -2.6861342073
  H        12.0731620917        0.8164823511       -2.6741279274
  H        12.0736063413       -0.8184142661        2.6739627760
  H        12.0884112676        0.8439160687        2.6868989497
  H        13.7649976644       -2.2381790592        0.0030552983
  H        13.7651164682        2.2388862860       -0.0013920740
  H         9.1676816231       -0.8241250365       -2.8383345128
  H         9.1682449514        0.8245537953       -2.8204602721
  H         9.1677181874       -0.8241828806        2.8188263794
  H         9.1669822521        0.8241258968        2.8371533094
  H        10.7978151624       -2.2763845465        0.0117712459
  H        10.7982823122        2.2753717077       -0.0132933095
  H         6.2475897833       -0.8309461162       -2.6882537734
  H         6.2630903632        0.8094677289       -2.6769494798
  H         6.2649127826       -0.8070370747        2.6811450675
  H         6.2496896425        0.8287137883        2.6913337400
  H         7.5497141752       -2.2872541450        0.0108359360
  H         7.5496646804        2.2932542413       -0.0120901042
  H         3.1955989734       -0.8190502491       -2.6752548458
  H         3.1993057041        0.8242776626       -2.6792266483
  H         3.1992358228       -0.8247154434        2.6764426556
  H         3.1956985980        0.8195557347        2.6740245443
  H         4.5797026828       -2.2299482925       -0.0008838735
  H         4.5808935071        2.2311878567       -0.0034452335
  H         0.0582708420       -0.8170895207       -2.6941019848