 DBCSR| Multiplication driver                                               BLAS
 DBCSR| Multrec recursion limit                                              512
 DBCSR| Multiplication stack size                                           1000
 DBCSR| Maximum elements for images                                    UNLIMITED
 DBCSR| Multiplicative factor virtual images                                   1
 DBCSR| Multiplication size stacks                                             3
 DBCSR| Number of 3D layers                                               SINGLE
 DBCSR| Use MPI memory allocation                                              T
 DBCSR| Use RMA algorithm                                                      F
 DBCSR| Use Communication thread                                               T
 DBCSR| Communication thread load                                             87


  **** **** ******  **  PROGRAM STARTED AT               2019-08-09 14:27:20.998
 ***** ** ***  *** **   PROGRAM STARTED ON        cpn-u25-23.cbls.ccr.buffalo.ed
 **    ****   ******    PROGRAM STARTED BY                              pavankum
 ***** **    ** ** **   PROGRAM PROCESS ID                                309083
  **** **  *******  **  PROGRAM STARTED IN /projects/academic/mdupuis2/pavan/VAB
                                           _calculation/results_for_paper/3.1D_F
                                           e_7units/blyp_plusU5/def_opts/gopt_st
                                           ate0

 CP2K| version string:                                          CP2K version 6.1
 CP2K| source code revision number:                                    svn:18464
 CP2K| cp2kflags: libint fftw3 libxc parallel mpi3 scalapack libderiv_max_am1=5 
 CP2K|            libint_max_am=6
 CP2K| is freely available from                            https://www.cp2k.org/
 CP2K| Program compiled at                          Fri Nov 30 14:17:09 EST 2018
 CP2K| Program compiled on                       srv-p22-12.cbls.ccr.buffalo.edu
 CP2K| Program compiled for                                                local
 CP2K| Data directory path    /projects/academic/mdupuis2/pavan/cp2k/cp2k-6.1/da
 CP2K| Input file name                                                 input.inp

 GLOBAL| Force Environment number                                              1
 GLOBAL| Basis set file name            /projects/academic/mdupuis2/pavan/BASIS_
 GLOBAL| Potential file name            /projects/academic/mdupuis2/pavan/POTENT
 GLOBAL| MM Potential file name                                     MM_POTENTIAL
 GLOBAL| Coordinate file name                                           opt0.xyz
 GLOBAL| Method name                                                        CP2K
 GLOBAL| Project name                                                      p_fe_
 GLOBAL| Preferred FFT library                                             FFTW3
 GLOBAL| Preferred diagonalization lib.                                       SL
 GLOBAL| Run type                                                        GEO_OPT
 GLOBAL| All-to-all communication in single precision                          F
 GLOBAL| FFTs using library dependent lengths                                  T
 GLOBAL| Global print level                                               MEDIUM
 GLOBAL| Total number of message passing processes                            64
 GLOBAL| Number of threads for this process                                    1
 GLOBAL| This output is from process                                           0
 GLOBAL| CPU model name :  Intel(R) Xeon(R) Gold 6130 CPU @ 2.10GHz

 MEMORY| system memory details [Kb]
 MEMORY|                        rank 0           min           max       average
 MEMORY| MemTotal            196307064     196307064     196307064     196307064
 MEMORY| MemFree             187172572     187172572     189553116     188362844
 MEMORY| Buffers                 35752         28200         35752         31976
 MEMORY| Cached                 645816        512436        645816        579126
 MEMORY| Slab                   663084        548044        663084        605564
 MEMORY| SReclaimable           294084        190656        294084        242370
 MEMORY| MemLikelyFree       188148224     188148224     190284408     189216316


 *** Fundamental physical constants (SI units) ***

 *** Literature: B. J. Mohr and B. N. Taylor,
 ***             CODATA recommended values of the fundamental physical
 ***             constants: 2006, Web Version 5.1
 ***             http://physics.nist.gov/constants

 Speed of light in vacuum [m/s]                             2.99792458000000E+08
 Magnetic constant or permeability of vacuum [N/A**2]       1.25663706143592E-06
 Electric constant or permittivity of vacuum [F/m]          8.85418781762039E-12
 Planck constant (h) [J*s]                                  6.62606896000000E-34
 Planck constant (h-bar) [J*s]                              1.05457162825177E-34
 Elementary charge [C]                                      1.60217648700000E-19
 Electron mass [kg]                                         9.10938215000000E-31
 Electron g factor [ ]                                     -2.00231930436220E+00
 Proton mass [kg]                                           1.67262163700000E-27
 Fine-structure constant                                    7.29735253760000E-03
 Rydberg constant [1/m]                                     1.09737315685270E+07
 Avogadro constant [1/mol]                                  6.02214179000000E+23
 Boltzmann constant [J/K]                                   1.38065040000000E-23
 Atomic mass unit [kg]                                      1.66053878200000E-27
 Bohr radius [m]                                            5.29177208590000E-11

 *** Conversion factors ***

 [u] -> [a.u.]                                              1.82288848426455E+03
 [Angstrom] -> [Bohr] = [a.u.]                              1.88972613288564E+00
 [a.u.] = [Bohr] -> [Angstrom]                              5.29177208590000E-01
 [a.u.] -> [s]                                              2.41888432650478E-17
 [a.u.] -> [fs]                                             2.41888432650478E-02
 [a.u.] -> [J]                                              4.35974393937059E-18
 [a.u.] -> [N]                                              8.23872205491840E-08
 [a.u.] -> [K]                                              3.15774647902944E+05
 [a.u.] -> [kJ/mol]                                         2.62549961709828E+03
 [a.u.] -> [kcal/mol]                                       6.27509468713739E+02
 [a.u.] -> [Pa]                                             2.94210107994716E+13
 [a.u.] -> [bar]                                            2.94210107994716E+08
 [a.u.] -> [atm]                                            2.90362800883016E+08
 [a.u.] -> [eV]                                             2.72113838565563E+01
 [a.u.] -> [Hz]                                             6.57968392072181E+15
 [a.u.] -> [1/cm] (wave numbers)                            2.19474631370540E+05
 [a.u./Bohr**2] -> [1/cm]                                   5.14048714338585E+03
 

 CELL_TOP| Volume [angstrom^3]:                                        26196.625
 CELL_TOP| Vector a [angstrom    21.385     0.000     0.000    |a| =      21.385
 CELL_TOP| Vector b [angstrom     0.000    35.000     0.000    |b| =      35.000
 CELL_TOP| Vector c [angstrom     0.000     0.000    35.000    |c| =      35.000
 CELL_TOP| Angle (b,c), alpha [degree]:                                   90.000
 CELL_TOP| Angle (a,c), beta  [degree]:                                   90.000
 CELL_TOP| Angle (a,b), gamma [degree]:                                   90.000
 CELL_TOP| Numerically orthorhombic:                                         YES

 CELL| Volume [angstrom^3]:                                            26196.625
 CELL| Vector a [angstrom]:      21.385     0.000     0.000    |a| =      21.385
 CELL| Vector b [angstrom]:       0.000    35.000     0.000    |b| =      35.000
 CELL| Vector c [angstrom]:       0.000     0.000    35.000    |c| =      35.000
 CELL| Angle (b,c), alpha [degree]:                                       90.000
 CELL| Angle (a,c), beta  [degree]:                                       90.000
 CELL| Angle (a,b), gamma [degree]:                                       90.000
 CELL| Numerically orthorhombic:                                             YES

 CELL_REF| Volume [angstrom^3]:                                        26196.625
 CELL_REF| Vector a [angstrom    21.385     0.000     0.000    |a| =      21.385
 CELL_REF| Vector b [angstrom     0.000    35.000     0.000    |b| =      35.000
 CELL_REF| Vector c [angstrom     0.000     0.000    35.000    |c| =      35.000
 CELL_REF| Angle (b,c), alpha [degree]:                                   90.000
 CELL_REF| Angle (a,c), beta  [degree]:                                   90.000
 CELL_REF| Angle (a,b), gamma [degree]:                                   90.000
 CELL_REF| Numerically orthorhombic:                                         YES

 *******************************************************************************
 *******************************************************************************
 **                                                                           **
 **     #####                         ##              ##                      **
 **    ##   ##            ##          ##              ##                      **
 **   ##     ##                       ##            ######                    **
 **   ##     ##  ##   ##  ##   #####  ##  ##   ####   ##    #####    #####    **
 **   ##     ##  ##   ##  ##  ##      ## ##   ##      ##   ##   ##  ##   ##   **
 **   ##  ## ##  ##   ##  ##  ##      ####     ###    ##   ######   ######    **
 **    ##  ###   ##   ##  ##  ##      ## ##      ##   ##   ##       ##        **
 **     #######   #####   ##   #####  ##  ##  ####    ##    #####   ##        **
 **           ##                                                    ##        **
 **                                                                           **
 **                                                ... make the atoms dance   **
 **                                                                           **
 **            Copyright (C) by CP2K developers group (2000 - 2018)           **
 **                                                                           **
 *******************************************************************************

 DFT| Spin unrestricted (spin-polarized) Kohn-Sham calculation               UKS
 DFT| Multiplicity                                                            35
 DFT| Number of spin states                                                    2
 DFT| Charge                                                                   6
 DFT| Self-interaction correction (SIC)                                       NO
 DFT| Cutoffs: density                                              1.000000E-10
 DFT|          gradient                                             1.000000E-10
 DFT|          tau                                                  1.000000E-10
 DFT|          cutoff_smoothing_range                               0.000000E+00
 DFT| XC density smoothing                                                  NONE
 DFT| XC derivatives                                                          PW

 DFT+U| Method                                                          MULLIKEN
 DFT+U| Check atomic kind information for details
 FUNCTIONAL| ROUTINE=NEW
 FUNCTIONAL| BECKE88:
 FUNCTIONAL| A. Becke, Phys. Rev. A 38, 3098 (1988) {LSD version}               
 FUNCTIONAL| LYP:
 FUNCTIONAL| C. Lee, W. Yang, R.G. Parr, Phys. Rev. B, 37, 785 (1988) {LSD versi
 FUNCTIONAL| on}                                                                

 QS| Method:                                                                 GPW
 QS| Density plane wave grid type                        NON-SPHERICAL FULLSPACE
 QS| Number of grid levels:                                                   10
 QS| Density cutoff [a.u.]:                                                325.0
 QS| Multi grid cutoff [a.u.]: 1) grid level                               325.0
 QS|                           2) grid level                               108.3
 QS|                           3) grid level                                36.1
 QS|                           4) grid level                                12.0
 QS|                           5) grid level                                 4.0
 QS|                           6) grid level                                 1.3
 QS|                           7) grid level                                 0.4
 QS|                           8) grid level                                 0.1
 QS|                           9) grid level                                 0.0
 QS|                          10) grid level                                 0.0
 QS| Grid level progression factor:                                          3.0
 QS| Relative density cutoff [a.u.]:                                        30.0
 QS| Consistent realspace mapping and integration 
 QS| Interaction thresholds: eps_pgf_orb:                                1.0E-10
 QS|                         eps_filter_matrix:                          0.0E+00
 QS|                         eps_core_charge:                            1.0E-14
 QS|                         eps_rho_gspace:                             1.0E-12
 QS|                         eps_rho_rspace:                             1.0E-12
 QS|                         eps_gvg_rspace:                             1.0E-06
 QS|                         eps_ppl:                                    1.0E-02
 QS|                         eps_ppnl:                                   1.0E-08


 ATOMIC KIND INFORMATION

  1. Atomic kind: Fe                                    Number of atoms:       7

     Orbital Basis Set                                                   mod-DZV

       Number of orbital shell sets:                                           1
       Number of orbital shells:                                               7
       Number of primitive Cartesian functions:                                6
       Number of Cartesian basis functions:                                   21
       Number of spherical basis functions:                                   19
       Norm type:                                                              2

       Normalised Cartesian orbitals:

                        Set   Shell   Orbital            Exponent    Coefficient

                          1       1    2s                8.424366      -0.545589
                                                         4.825220      -0.832336
                                                         2.198939       0.958990
                                                         0.891661       0.416271
                                                         0.316231       0.012631
                                                         0.103474      -0.013505

                          1       2    3s                8.424366      -0.106056
                                                         4.825220      -0.104587
                                                         2.198939       0.052318
                                                         0.891661      -0.169042
                                                         0.316231       0.061854
                                                         0.103474       0.122891

                          1       3    4s                8.424366      -0.333477
                                                         4.825220      -0.289267
                                                         2.198939      -0.125861
                                                         0.891661      -1.004000
                                                         0.316231       0.780774
                                                         0.103474      -0.187846

                          1       4    3px               8.424366      -1.658234
                                                         4.825220       1.618912
                                                         2.198939       1.969078
                                                         0.891661       0.523780
                                                         0.316231       0.024574
                                                         0.103474      -0.000798
                          1       4    3py               8.424366      -1.658234
                                                         4.825220       1.618912
                                                         2.198939       1.969078
                                                         0.891661       0.523780
                                                         0.316231       0.024574
                                                         0.103474      -0.000798
                          1       4    3pz               8.424366      -1.658234
                                                         4.825220       1.618912
                                                         2.198939       1.969078
                                                         0.891661       0.523780
                                                         0.316231       0.024574
                                                         0.103474      -0.000798

                          1       5    4px               8.424366      -0.105249
                                                         4.825220      -0.126123
                                                         2.198939      -0.349657
                                                         0.891661      -0.133470
                                                         0.316231       0.170554
                                                         0.103474       0.054381
                          1       5    4py               8.424366      -0.105249
                                                         4.825220      -0.126123
                                                         2.198939      -0.349657
                                                         0.891661      -0.133470
                                                         0.316231       0.170554
                                                         0.103474       0.054381
                          1       5    4pz               8.424366      -0.105249
                                                         4.825220      -0.126123
                                                         2.198939      -0.349657
                                                         0.891661      -0.133470
                                                         0.316231       0.170554
                                                         0.103474       0.054381

                          1       6    4dx2              8.424366       7.918298
                                                         4.825220       5.112663
                                                         2.198939       2.118663
                                                         0.891661       0.465004
                                                         0.316231       0.065856
                                                         0.103474       0.002769
                          1       6    4dxy              8.424366      13.714895
                                                         4.825220       8.855393
                                                         2.198939       3.669632
                                                         0.891661       0.805411
                                                         0.316231       0.114066
                                                         0.103474       0.004796
                          1       6    4dxz              8.424366      13.714895
                                                         4.825220       8.855393
                                                         2.198939       3.669632
                                                         0.891661       0.805411
                                                         0.316231       0.114066
                                                         0.103474       0.004796
                          1       6    4dy2              8.424366       7.918298
                                                         4.825220       5.112663
                                                         2.198939       2.118663
                                                         0.891661       0.465004
                                                         0.316231       0.065856
                                                         0.103474       0.002769
                          1       6    4dyz              8.424366      13.714895
                                                         4.825220       8.855393
                                                         2.198939       3.669632
                                                         0.891661       0.805411
                                                         0.316231       0.114066
                                                         0.103474       0.004796
                          1       6    4dz2              8.424366       7.918298
                                                         4.825220       5.112663
                                                         2.198939       2.118663
                                                         0.891661       0.465004
                                                         0.316231       0.065856
                                                         0.103474       0.002769

                          1       7    5dx2              8.424366      -4.223614
                                                         4.825220      -1.970584
                                                         2.198939      -1.543490
                                                         0.891661      -0.041381
                                                         0.316231       0.082821
                                                         0.103474       0.021964
                          1       7    5dxy              8.424366      -7.315513
                                                         4.825220      -3.413151
                                                         2.198939      -2.673404
                                                         0.891661      -0.071673
                                                         0.316231       0.143450
                                                         0.103474       0.038042
                          1       7    5dxz              8.424366      -7.315513
                                                         4.825220      -3.413151
                                                         2.198939      -2.673404
                                                         0.891661      -0.071673
                                                         0.316231       0.143450
                                                         0.103474       0.038042
                          1       7    5dy2              8.424366      -4.223614
                                                         4.825220      -1.970584
                                                         2.198939      -1.543490
                                                         0.891661      -0.041381
                                                         0.316231       0.082821
                                                         0.103474       0.021964
                          1       7    5dyz              8.424366      -7.315513
                                                         4.825220      -3.413151
                                                         2.198939      -2.673404
                                                         0.891661      -0.071673
                                                         0.316231       0.143450
                                                         0.103474       0.038042
                          1       7    5dz2              8.424366      -4.223614
                                                         4.825220      -1.970584
                                                         2.198939      -1.543490
                                                         0.891661      -0.041381
                                                         0.316231       0.082821
                                                         0.103474       0.021964

     GTH Potential information for                                  GTH-BLYP-q16

       Description:                       Goedecker-Teter-Hutter pseudopotential
                                           Goedecker et al., PRB 54, 1703 (1996)
                                          Hartwigsen et al., PRB 58, 3641 (1998)
                                                      Krack, TCA 114, 145 (2005)

       Gaussian exponent of the core charge distribution:               3.858025
       Electronic configuration (s p d ...):                           4   6   6

       Parameters of the local part of the GTH pseudopotential:

                          rloc        C1          C2          C3          C4
                        0.360000    7.011025   -0.222747

       Parameters of the non-local part of the GTH pseudopotential:

                   l      r(l)      h(i,j,l)

                   0    0.276205    0.611496    7.992357
                                    7.992357  -10.318089
                   1    0.247130   -8.710556    8.684169
                                    8.684169  -10.275248
                   2    0.223534  -12.411504

     A DFT+U correction is applied to atoms of this atomic kind:
       Angular quantum momentum number L:                                      2
       U(eff) = (U - J) value in [eV]:                                     5.000

  2. Atomic kind: O                                     Number of atoms:      28

     Orbital Basis Set                                                   mod-DZV

       Number of orbital shell sets:                                           1
       Number of orbital shells:                                               4
       Number of primitive Cartesian functions:                                5
       Number of Cartesian basis functions:                                    8
       Number of spherical basis functions:                                    8
       Norm type:                                                              2

       Normalised Cartesian orbitals:

                        Set   Shell   Orbital            Exponent    Coefficient

                          1       1    2s               10.389228       0.396646
                                                         3.849621       0.208811
                                                         1.388401      -0.301641
                                                         0.496955      -0.274061
                                                         0.162492      -0.033677

                          1       2    3s               10.389228       0.303673
                                                         3.849621       0.240943
                                                         1.388401      -0.313066
                                                         0.496955      -0.043055
                                                         0.162492       0.213991

                          1       3    3px              10.389228      -1.530415
                                                         3.849621      -1.371928
                                                         1.388401      -0.761951
                                                         0.496955      -0.253695
                                                         0.162492      -0.035541
                          1       3    3py              10.389228      -1.530415
                                                         3.849621      -1.371928
                                                         1.388401      -0.761951
                                                         0.496955      -0.253695
                                                         0.162492      -0.035541
                          1       3    3pz              10.389228      -1.530415
                                                         3.849621      -1.371928
                                                         1.388401      -0.761951
                                                         0.496955      -0.253695
                                                         0.162492      -0.035541

                          1       4    4px              10.389228      -0.565392
                                                         3.849621      -0.038231
                                                         1.388401      -0.382373
                                                         0.496955       0.179070
                                                         0.162492       0.122714
                          1       4    4py              10.389228      -0.565392
                                                         3.849621      -0.038231
                                                         1.388401      -0.382373
                                                         0.496955       0.179070
                                                         0.162492       0.122714
                          1       4    4pz              10.389228      -0.565392
                                                         3.849621      -0.038231
                                                         1.388401      -0.382373
                                                         0.496955       0.179070
                                                         0.162492       0.122714

     GTH Potential information for                                   GTH-BLYP-q6

       Description:                       Goedecker-Teter-Hutter pseudopotential
                                           Goedecker et al., PRB 54, 1703 (1996)
                                          Hartwigsen et al., PRB 58, 3641 (1998)
                                                      Krack, TCA 114, 145 (2005)

       Gaussian exponent of the core charge distribution:               8.438331
       Electronic configuration (s p d ...):                               2   4

       Parameters of the local part of the GTH pseudopotential:

                          rloc        C1          C2          C3          C4
                        0.243420  -16.991892    2.566142

       Parameters of the non-local part of the GTH pseudopotential:

                   l      r(l)      h(i,j,l)

                   0    0.220831   18.388851
                   1    0.217201

  3. Atomic kind: H                                     Number of atoms:      42

     Orbital Basis Set                                                   mod-DZV

       Number of orbital shell sets:                                           1
       Number of orbital shells:                                               2
       Number of primitive Cartesian functions:                                5
       Number of Cartesian basis functions:                                    2
       Number of spherical basis functions:                                    2
       Norm type:                                                              2

       Normalised Cartesian orbitals:

                        Set   Shell   Orbital            Exponent    Coefficient

                          1       1    2s               10.068468      -0.133023
                                                         2.680223      -0.177618
                                                         0.791502      -0.258419
                                                         0.239116      -0.107525
                                                         0.082193      -0.014019

                          1       2    3s               10.068468       0.344673
                                                         2.680223       1.819821
                                                         0.791502      -0.999069
                                                         0.239116       0.017430
                                                         0.082193       0.082660

     GTH Potential information for                                   GTH-BLYP-q1

       Description:                       Goedecker-Teter-Hutter pseudopotential
                                           Goedecker et al., PRB 54, 1703 (1996)
                                          Hartwigsen et al., PRB 58, 3641 (1998)
                                                      Krack, TCA 114, 145 (2005)

       Gaussian exponent of the core charge distribution:              12.500000
       Electronic configuration (s p d ...):                                   1

       Parameters of the local part of the GTH pseudopotential:

                          rloc        C1          C2          C3          C4
                        0.200000   -4.195961    0.730498


 MOLECULE KIND INFORMATION


 All atoms are their own molecule, skipping detailed information


 TOTAL NUMBERS AND MAXIMUM NUMBERS

  Total number of            - Atomic kinds:                                   3
                             - Atoms:                                         77
                             - Shell sets:                                    77
                             - Shells:                                       245
                             - Primitive Cartesian functions:                392
                             - Cartesian basis functions:                    455
                             - Spherical basis functions:                    441

  Maximum angular momentum of- Orbital basis functions:                        2
                             - Local part of the GTH pseudopotential:          2
                             - Non-local part of the GTH pseudopotential:      3


 MODULE QUICKSTEP:  ATOMIC COORDINATES IN angstrom

  Atom  Kind  Element       X           Y           Z          Z(eff)       Mass

       1     1 Fe  26   18.340072   -0.000015   -0.000118     16.00      55.8450
       2     1 Fe  26   15.292532   -0.000000   -0.000002     16.00      55.8450
       3     1 Fe  26   12.218573   -0.000335    0.001272     16.00      55.8450
       4     1 Fe  26    9.137433    0.000372    0.000095     16.00      55.8450
       5     1 Fe  26    6.123551    0.026852    0.000121     16.00      55.8450
       6     1 Fe  26    3.110448    0.000004   -0.000164     16.00      55.8450
       7     1 Fe  26    0.025940   -0.001156   -0.021792     16.00      55.8450
       8     2 O    8   18.317707    0.031745    2.114458      6.00      15.9994
       9     2 O    8   18.313902   -0.032081   -2.115275      6.00      15.9994
      10     2 O    8   19.857866   -1.258526    0.018703      6.00      15.9994
      11     2 O    8   19.857502    1.256966   -0.032075      6.00      15.9994
      12     2 O    8   15.275541    0.032655    2.114800      6.00      15.9994
      13     2 O    8   15.274056   -0.032668   -2.114369      6.00      15.9994
      14     2 O    8   16.814777   -1.262149    0.025607      6.00      15.9994
      15     2 O    8   16.814818    1.262057   -0.024730      6.00      15.9994
      16     2 O    8   12.240322    0.030535    2.130681      6.00      15.9994
      17     2 O    8   12.240144   -0.030463   -2.126381      6.00      15.9994
      18     2 O    8   13.771405   -1.257917    0.028161      6.00      15.9994
      19     2 O    8   13.771640    1.257580   -0.026936      6.00      15.9994
      20     2 O    8    9.234393   -0.030500    2.172078      6.00      15.9994
      21     2 O    8    9.234979    0.030268   -2.171693      6.00      15.9994
      22     2 O    8   10.732278   -1.258792   -0.016756      6.00      15.9994
      23     2 O    8   10.735569    1.258402    0.019312      6.00      15.9994
      24     2 O    8    6.125810    0.029555    2.230914      6.00      15.9994
      25     2 O    8    6.126521    0.038704   -2.229706      6.00      15.9994
      26     2 O    8    7.748821   -1.295066   -0.028094      6.00      15.9994
      27     2 O    8    7.775095    1.325596    0.027565      6.00      15.9994
      28     2 O    8    3.008850   -0.028489    2.168053      6.00      15.9994
      29     2 O    8    3.013860    0.027321   -2.172028      6.00      15.9994
      30     2 O    8    4.498540   -1.295036   -0.027820      6.00      15.9994
      31     2 O    8    4.468988    1.326219    0.028417      6.00      15.9994
      32     2 O    8   -0.024928    0.029222    2.114449      6.00      15.9994
      33     2 O    8   -0.030978   -0.029569   -2.164477      6.00      15.9994
      34     2 O    8    1.511378   -1.257437   -0.022048      6.00      15.9994
      35     2 O    8    1.506315    1.256797   -0.024183      6.00      15.9994
      36     3 H    1   18.401306   -0.849059   -2.669922      1.00       1.0079
      37     3 H    1   18.386567    0.777457   -2.682869      1.00       1.0079
      38     3 H    1   18.378452   -0.777895    2.683328      1.00       1.0079
      39     3 H    1   18.396861    0.848927    2.670074      1.00       1.0079
      40     3 H    1   19.866622   -2.247391    0.022288      1.00       1.0079
      41     3 H    1   19.868317    2.245768   -0.034284      1.00       1.0079
      42     3 H    1   15.182099   -0.850608   -2.666925      1.00       1.0079
      43     3 H    1   15.186914    0.775911   -2.681189      1.00       1.0079
      44     3 H    1   15.184702   -0.775773    2.681304      1.00       1.0079
      45     3 H    1   15.175583    0.850631    2.666023      1.00       1.0079
      46     3 H    1   16.813713   -2.250997    0.029313      1.00       1.0079
      47     3 H    1   16.813897    2.250898   -0.030076      1.00       1.0079
      48     3 H    1   11.987998   -0.841064   -2.639579      1.00       1.0079
      49     3 H    1   12.061058    0.779271   -2.671062      1.00       1.0079
      50     3 H    1   12.065603   -0.779803    2.675788      1.00       1.0079
      51     3 H    1   11.977644    0.839880    2.640513      1.00       1.0079
      52     3 H    1   13.760676   -2.246757    0.027201      1.00       1.0079
      53     3 H    1   13.760281    2.246407   -0.026377      1.00       1.0079
      54     3 H    1    9.003095   -0.775355   -2.702174      1.00       1.0079
      55     3 H    1    9.018685    0.849993   -2.687050      1.00       1.0079
      56     3 H    1    9.031386   -0.850353    2.692791      1.00       1.0079
      57     3 H    1    8.989462    0.774662    2.697233      1.00       1.0079
      58     3 H    1   10.703803   -2.246623   -0.011131      1.00       1.0079
      59     3 H    1   10.706209    2.246094    0.012720      1.00       1.0079
      60     3 H    1    6.113598   -0.779595   -2.789357      1.00       1.0079
      61     3 H    1    6.109812    0.848561   -2.801775      1.00       1.0079
      62     3 H    1    6.111007   -0.778444    2.805454      1.00       1.0079
      63     3 H    1    6.115897    0.849507    2.788714      1.00       1.0079
      64     3 H    1    7.728130   -2.281590   -0.028677      1.00       1.0079
      65     3 H    1    7.775172    2.312696    0.031495      1.00       1.0079
      66     3 H    1    3.226499   -0.776887   -2.712038      1.00       1.0079
      67     3 H    1    3.193822    0.849950   -2.695953      1.00       1.0079
      68     3 H    1    3.176648   -0.851138    2.696335      1.00       1.0079
      69     3 H    1    3.235753    0.774977    2.703313      1.00       1.0079
      70     3 H    1    4.519126   -2.281583   -0.030783      1.00       1.0079
      71     3 H    1    4.469784    2.313294    0.029236      1.00       1.0079
      72     3 H    1    0.186499   -0.842419   -2.690061      1.00       1.0079
      73     3 H    1    0.148910    0.780619   -2.708063      1.00       1.0079
      74     3 H    1    0.135081   -0.780600    2.664572      1.00       1.0079
      75     3 H    1    0.190672    0.841830    2.640892      1.00       1.0079
      76     3 H    1    1.539026   -2.245358   -0.018013      1.00       1.0079
      77     3 H    1    1.534616    2.244537   -0.023989      1.00       1.0079




 SCF PARAMETERS         Density guess:                                   RESTART
                        --------------------------------------------------------
                        max_scf:                                            1000
                        max_scf_history:                                       0
                        max_diis:                                              4
                        --------------------------------------------------------
                        eps_scf:                                        1.00E-06
                        eps_scf_history:                                0.00E+00
                        eps_diis:                                       1.00E-01
                        eps_eigval:                                     1.00E-05
                        --------------------------------------------------------
                        level_shift [a.u.]:                                 0.00
                        --------------------------------------------------------
                        Outer loop SCF in use 
                        No variables optimised in outer loop
                        eps_scf                                         1.00E-06
                        max_scf                                              500
                        No outer loop optimization
                        step_size                                       5.00E-01

 PW_GRID| Information for grid number                                          1
 PW_GRID| Grid distributed over                                    64 processors
 PW_GRID| Real space group dimensions                                    64    1
 PW_GRID| the grid is blocked:                                                NO
 PW_GRID| Cutoff [a.u.]                                                    325.0
 PW_GRID| spherical cutoff:                                                   NO
 PW_GRID|   Bounds   1           -165     164                Points:         330
 PW_GRID|   Bounds   2           -270     269                Points:         540
 PW_GRID|   Bounds   3           -270     269                Points:         540
 PW_GRID| Volume element (a.u.^3)  0.1837E-02     Volume (a.u.^3)    176783.5904
 PW_GRID| Grid span                                                    FULLSPACE
 PW_GRID|   Distribution                         Average         Max         Min
 PW_GRID|   G-Vectors                          1503562.5     1503810     1503480
 PW_GRID|   G-Rays                                4556.2        4557        4556
 PW_GRID|   Real Space Points                  1503562.5     1749600     1458000

 PW_GRID| Information for grid number                                          2
 PW_GRID| Grid distributed over                                    64 processors
 PW_GRID| Real space group dimensions                                    64    1
 PW_GRID| the grid is blocked:                                                NO
 PW_GRID| Cutoff [a.u.]                                                    108.3
 PW_GRID| spherical cutoff:                                                   NO
 PW_GRID|   Bounds   1            -94      94                Points:         189
 PW_GRID|   Bounds   2           -157     157                Points:         315
 PW_GRID|   Bounds   3           -157     157                Points:         315
 PW_GRID| Volume element (a.u.^3)  0.9427E-02     Volume (a.u.^3)    176783.5904
 PW_GRID| Grid span                                                    FULLSPACE
 PW_GRID|   Distribution                         Average         Max         Min
 PW_GRID|   G-Vectors                           293023.8      293895      292194
 PW_GRID|   G-Rays                                1550.4        1555        1546
 PW_GRID|   Real Space Points                   293023.8      297675      198450

 PW_GRID| Information for grid number                                          3
 PW_GRID| Grid distributed over                                    64 processors
 PW_GRID| Real space group dimensions                                    64    1
 PW_GRID| the grid is blocked:                                                NO
 PW_GRID| Cutoff [a.u.]                                                     36.1
 PW_GRID| spherical cutoff:                                                   NO
 PW_GRID|   Bounds   1            -55      54                Points:         110
 PW_GRID|   Bounds   2            -90      89                Points:         180
 PW_GRID|   Bounds   3            -90      89                Points:         180
 PW_GRID| Volume element (a.u.^3)  0.4960E-01     Volume (a.u.^3)    176783.5904
 PW_GRID| Grid span                                                    FULLSPACE
 PW_GRID|   Distribution                         Average         Max         Min
 PW_GRID|   G-Vectors                            55687.5       55880       55440
 PW_GRID|   G-Rays                                 506.2         508         504
 PW_GRID|   Real Space Points                    55687.5       64800       32400

 PW_GRID| Information for grid number                                          4
 PW_GRID| Grid distributed over                                    64 processors
 PW_GRID| Real space group dimensions                                     8    8
 PW_GRID| the grid is blocked:                                                NO
 PW_GRID| Cutoff [a.u.]                                                     12.0
 PW_GRID| spherical cutoff:                                                   NO
 PW_GRID|   Bounds   1            -31      31                Points:          63
 PW_GRID|   Bounds   2            -52      52                Points:         105
 PW_GRID|   Bounds   3            -52      52                Points:         105
 PW_GRID| Volume element (a.u.^3)  0.2545         Volume (a.u.^3)    176783.5904
 PW_GRID| Grid span                                                    FULLSPACE
 PW_GRID|   Distribution                         Average         Max         Min
 PW_GRID|   G-Vectors                            10852.7       10899       10773
 PW_GRID|   G-Rays                                 172.3         173         171
 PW_GRID|   Real Space Points                    10852.7       11760        9555

 PW_GRID| Information for grid number                                          5
 PW_GRID| Grid distributed over                                    64 processors
 PW_GRID| Real space group dimensions                                     8    8
 PW_GRID| the grid is blocked:                                                NO
 PW_GRID| Cutoff [a.u.]                                                      4.0
 PW_GRID| spherical cutoff:                                                   NO
 PW_GRID|   Bounds   1            -20      19                Points:          40
 PW_GRID|   Bounds   2            -30      29                Points:          60
 PW_GRID|   Bounds   3            -30      29                Points:          60
 PW_GRID| Volume element (a.u.^3)   1.228         Volume (a.u.^3)    176783.5904
 PW_GRID| Grid span                                                    FULLSPACE
 PW_GRID|   Distribution                         Average         Max         Min
 PW_GRID|   G-Vectors                             2250.0        2360        2160
 PW_GRID|   G-Rays                                  56.2          59          54
 PW_GRID|   Real Space Points                     2250.0        2400        2100

 PW_GRID| Information for grid number                                          6
 PW_GRID| Grid distributed over                                    64 processors
 PW_GRID| Real space group dimensions                                     8    8
 PW_GRID| the grid is blocked:                                                NO
 PW_GRID| Cutoff [a.u.]                                                      1.3
 PW_GRID| spherical cutoff:                                                   NO
 PW_GRID|   Bounds   1            -10      10                Points:          21
 PW_GRID|   Bounds   2            -17      17                Points:          35
 PW_GRID|   Bounds   3            -17      17                Points:          35
 PW_GRID| Volume element (a.u.^3)   6.872         Volume (a.u.^3)    176783.5904
 PW_GRID| Grid span                                                    FULLSPACE
 PW_GRID|   Distribution                         Average         Max         Min
 PW_GRID|   G-Vectors                              402.0         462         357
 PW_GRID|   G-Rays                                  19.1          22          17
 PW_GRID|   Real Space Points                      402.0         525         280

 PW_GRID| Information for grid number                                          7
 PW_GRID| Grid distributed over                                    64 processors
 PW_GRID| Real space group dimensions                                     8    8
 PW_GRID| the grid is blocked:                                                NO
 PW_GRID| Cutoff [a.u.]                                                      0.4
 PW_GRID| spherical cutoff:                                                   NO
 PW_GRID|   Bounds   1             -7       6                Points:          14
 PW_GRID|   Bounds   2            -10       9                Points:          20
 PW_GRID|   Bounds   3            -10       9                Points:          20
 PW_GRID| Volume element (a.u.^3)   31.57         Volume (a.u.^3)    176783.5904
 PW_GRID| Grid span                                                    FULLSPACE
 PW_GRID|   Distribution                         Average         Max         Min
 PW_GRID|   G-Vectors                               87.5          98          70
 PW_GRID|   G-Rays                                   6.2           7           5
 PW_GRID|   Real Space Points                       87.5         120          40

 PW_GRID| Information for grid number                                          8
 PW_GRID| Grid distributed over                                    64 processors
 PW_GRID| Real space group dimensions                                     8    8
 PW_GRID| the grid is blocked:                                                NO
 PW_GRID| Cutoff [a.u.]                                                      0.1
 PW_GRID| spherical cutoff:                                                   NO
 PW_GRID|   Bounds   1             -3       3                Points:           7
 PW_GRID|   Bounds   2             -5       5                Points:          11
 PW_GRID|   Bounds   3             -5       5                Points:          11
 PW_GRID| Volume element (a.u.^3)   208.7         Volume (a.u.^3)    176783.5904
 PW_GRID| Grid span                                                    FULLSPACE
 PW_GRID|   Distribution                         Average         Max         Min
 PW_GRID|   G-Vectors                               13.2          21           7
 PW_GRID|   G-Rays                                   1.9           3           1
 PW_GRID|   Real Space Points                       13.2          22           0

 PW_GRID| Information for grid number                                          9
 PW_GRID| Grid distributed over                                    64 processors
 PW_GRID| Real space group dimensions                                     8    8
 PW_GRID| the grid is blocked:                                                NO
 PW_GRID| Cutoff [a.u.]                                                      0.0
 PW_GRID| spherical cutoff:                                                   NO
 PW_GRID|   Bounds   1             -2       2                Points:           5
 PW_GRID|   Bounds   2             -3       3                Points:           7
 PW_GRID|   Bounds   3             -3       3                Points:           7
 PW_GRID| Volume element (a.u.^3)   721.6         Volume (a.u.^3)    176783.5904
 PW_GRID| Grid span                                                    FULLSPACE
 PW_GRID|   Distribution                         Average         Max         Min
 PW_GRID|   G-Vectors                                3.8          10           0
 PW_GRID|   G-Rays                                   0.8           2           0
 PW_GRID|   Real Space Points                        3.8           7           0

 PW_GRID| Information for grid number                                         10
 PW_GRID| Grid distributed over                                    64 processors
 PW_GRID| Real space group dimensions                                     8    8
 PW_GRID| the grid is blocked:                                                NO
 PW_GRID| Cutoff [a.u.]                                                      0.0
 PW_GRID| spherical cutoff:                                                   NO
 PW_GRID|   Bounds   1             -1       1                Points:           3
 PW_GRID|   Bounds   2             -1       1                Points:           3
 PW_GRID|   Bounds   3             -1       1                Points:           3
 PW_GRID| Volume element (a.u.^3)   6548.         Volume (a.u.^3)    176783.5904
 PW_GRID| Grid span                                                    FULLSPACE
 PW_GRID|   Distribution                         Average         Max         Min
 PW_GRID|   G-Vectors                                0.4           3           0
 PW_GRID|   G-Rays                                   0.1           1           0
 PW_GRID|   Real Space Points                        0.4           3           0

 POISSON| Solver                                                        PERIODIC
 POISSON| Periodicity                                                        XYZ

 RS_GRID| Information for grid number                                          1
 RS_GRID|   Bounds   1           -165     164                Points:         330
 RS_GRID|   Bounds   2           -270     269                Points:         540
 RS_GRID|   Bounds   3           -270     269                Points:         540
 RS_GRID| Real space distribution over                                  8 groups
 RS_GRID| Real space distribution along direction                              2
 RS_GRID| Border size                                                         25
 RS_GRID| Real space distribution over                                  8 groups
 RS_GRID| Real space distribution along direction                              3
 RS_GRID| Border size                                                         25
 RS_GRID|   Distribution                         Average         Max         Min
 RS_GRID|   Planes                                 117.5         118         117
 RS_GRID|   Distribution                         Average         Max         Min
 RS_GRID|   Planes                                 117.5         118         117

 RS_GRID| Information for grid number                                          2
 RS_GRID|   Bounds   1            -94      94                Points:         189
 RS_GRID|   Bounds   2           -157     157                Points:         315
 RS_GRID|   Bounds   3           -157     157                Points:         315
 RS_GRID| Real space distribution over                                  8 groups
 RS_GRID| Real space distribution along direction                              2
 RS_GRID| Border size                                                         28
 RS_GRID| Real space distribution over                                  8 groups
 RS_GRID| Real space distribution along direction                              3
 RS_GRID| Border size                                                         28
 RS_GRID|   Distribution                         Average         Max         Min
 RS_GRID|   Planes                                  95.4          96          95
 RS_GRID|   Distribution                         Average         Max         Min
 RS_GRID|   Planes                                  95.4          96          95

 RS_GRID| Information for grid number                                          3
 RS_GRID|   Bounds   1            -55      54                Points:         110
 RS_GRID|   Bounds   2            -90      89                Points:         180
 RS_GRID|   Bounds   3            -90      89                Points:         180
 RS_GRID| Real space fully replicated
 RS_GRID| Group size                                                           1

 RS_GRID| Information for grid number                                          4
 RS_GRID|   Bounds   1            -31      31                Points:          63
 RS_GRID|   Bounds   2            -52      52                Points:         105
 RS_GRID|   Bounds   3            -52      52                Points:         105
 RS_GRID| Real space fully replicated
 RS_GRID| Group size                                                           1

 RS_GRID| Information for grid number                                          5
 RS_GRID|   Bounds   1            -20      19                Points:          40
 RS_GRID|   Bounds   2            -30      29                Points:          60
 RS_GRID|   Bounds   3            -30      29                Points:          60
 RS_GRID| Real space fully replicated
 RS_GRID| Group size                                                           1

 RS_GRID| Information for grid number                                          6
 RS_GRID|   Bounds   1            -10      10                Points:          21
 RS_GRID|   Bounds   2            -17      17                Points:          35
 RS_GRID|   Bounds   3            -17      17                Points:          35
 RS_GRID| Real space fully replicated
 RS_GRID| Group size                                                           1

 RS_GRID| Information for grid number                                          7
 RS_GRID|   Bounds   1             -7       6                Points:          14
 RS_GRID|   Bounds   2            -10       9                Points:          20
 RS_GRID|   Bounds   3            -10       9                Points:          20
 RS_GRID| Real space fully replicated
 RS_GRID| Group size                                                           1

 RS_GRID| Information for grid number                                          8
 RS_GRID|   Bounds   1             -3       3                Points:           7
 RS_GRID|   Bounds   2             -5       5                Points:          11
 RS_GRID|   Bounds   3             -5       5                Points:          11
 RS_GRID| Real space fully replicated
 RS_GRID| Group size                                                           1

 RS_GRID| Information for grid number                                          9
 RS_GRID|   Bounds   1             -2       2                Points:           5
 RS_GRID|   Bounds   2             -3       3                Points:           7
 RS_GRID|   Bounds   3             -3       3                Points:           7
 RS_GRID| Real space fully replicated
 RS_GRID| Group size                                                           1

 RS_GRID| Information for grid number                                         10
 RS_GRID|   Bounds   1             -1       1                Points:           3
 RS_GRID|   Bounds   2             -1       1                Points:           3
 RS_GRID|   Bounds   3             -1       1                Points:           3
 RS_GRID| Real space fully replicated
 RS_GRID| Group size                                                           1

 *******************************************************************************
 ***                     STARTING GEOMETRY OPTIMIZATION                      ***
 ***                           CONJUGATE GRADIENTS                           ***
 *******************************************************************************

 Spin 1

 Number of electrons:                                                        175
 Number of occupied orbitals:                                                175
 Number of molecular orbitals:                                               175

 Spin 2

 Number of electrons:                                                        141
 Number of occupied orbitals:                                                141
 Number of molecular orbitals:                                               141

 Number of orbital functions:                                                441
 Number of independent orbital functions:                                    441

 Extrapolation method: initial_guess


 SCF WAVEFUNCTION OPTIMIZATION

  ----------------------------------- OT ---------------------------------------
  Minimizer      : CG                  : conjugate gradient
  Preconditioner : FULL_KINETIC        : inversion of T + eS
  Precond_solver : DEFAULT
  Line search    : 2PNT                : 2 energies, one gradient
  stepsize       :    0.15000000                  energy_gap     :    0.20000000
  eps_taylor     :   0.10000E-15                  max_taylor     :             4
  ----------------------------------- OT ---------------------------------------

  Step     Update method      Time    Convergence         Total energy    Change
  ------------------------------------------------------------------------------

 *** WARNING in dft_plus_u.F:1457 :: DFT+U energy contibution is negative ***
 *** possibly due to unphysical Mulliken charges. Check your input, if    ***
 *** this warning persists or try a different method!                     ***

     1 OT CG       0.15E+00    6.3     0.00000106     -1335.5306185691 -1.34E+03

 *** WARNING in dft_plus_u.F:1457 :: DFT+U energy contibution is negative ***
 *** possibly due to unphysical Mulliken charges. Check your input, if    ***
 *** this warning persists or try a different method!                     ***

     2 OT LS       0.21E+00    3.8                    -1335.5306185843

 *** WARNING in dft_plus_u.F:1457 :: DFT+U energy contibution is negative ***
 *** possibly due to unphysical Mulliken charges. Check your input, if    ***
 *** this warning persists or try a different method!                     ***

     3 OT CG       0.21E+00    7.6     0.00000059     -1335.5306185856 -1.65E-08

  *** SCF run converged in     3 steps ***


  Electronic density on regular grids:       -315.9999999999        0.0000000001
  Core density on regular grids:              321.9999999999       -0.0000000001
  Total charge density on r-space grids:        6.0000000000
  Total charge density g-space grids:           6.0000000000

  Overlap energy of the core charge distribution:               0.00000038086956
  Self energy of the core charge distribution:              -2631.59580429473499
  Core Hamiltonian energy:                                    745.07133981199240
  Hartree energy:                                             754.88564351024388
  Exchange-correlation energy:                               -203.86399133161405

  DFT+U energy:                                                -0.02780666235579

  Total energy:                                             -1335.53061858559886

  outer SCF iter =    1 RMS gradient =   0.59E-06 energy =      -1335.5306185856
  outer SCF loop converged in   1 iterations or    3 steps


  Integrated absolute spin density  :                              34.0606622340
  Ideal and single determinant S**2 :                  306.000000     306.034032

 !-----------------------------------------------------------------------------!
                     Mulliken Population Analysis

 #  Atom  Element  Kind  Atomic population (alpha,beta) Net charge  Spin moment
       1     Fe       1         9.617054     5.163999     1.218947     4.453055
       2     Fe       1         9.617087     5.163935     1.218978     4.453152
       3     Fe       1         9.618963     5.174704     1.206333     4.444259
       4     Fe       1         9.612196     5.201553     1.186252     4.410643
       5     Fe       1         9.426416     5.492101     1.081484     3.934315
       6     Fe       1         9.611091     5.199840     1.189068     4.411251
       7     Fe       1         9.617284     5.173551     1.209165     4.443732
       8     O        2         3.252807     3.215086    -0.467893     0.037722
       9     O        2         3.252571     3.214775    -0.467347     0.037796
      10     O        2         3.420195     3.211855    -0.632051     0.208340
      11     O        2         3.420243     3.211179    -0.631422     0.209063
      12     O        2         3.252749     3.214926    -0.467675     0.037823
      13     O        2         3.252699     3.214796    -0.467495     0.037903
      14     O        2         3.420446     3.208202    -0.628647     0.212244
      15     O        2         3.420468     3.207968    -0.628436     0.212500
      16     O        2         3.253638     3.216523    -0.470161     0.037115
      17     O        2         3.253525     3.216304    -0.469829     0.037221
      18     O        2         3.420224     3.212110    -0.632334     0.208114
      19     O        2         3.420303     3.211663    -0.631966     0.208639
      20     O        2         3.257251     3.227687    -0.484938     0.029564
      21     O        2         3.257207     3.227562    -0.484769     0.029645
      22     O        2         3.420395     3.217847    -0.638242     0.202548
      23     O        2         3.420466     3.216764    -0.637230     0.203702
      24     O        2         3.262691     3.259413    -0.522104     0.003278
      25     O        2         3.262569     3.259240    -0.521809     0.003329
      26     O        2         3.425831     3.229371    -0.655202     0.196460
      27     O        2         3.426205     3.228978    -0.655183     0.197227
      28     O        2         3.257320     3.228265    -0.485586     0.029055
      29     O        2         3.256856     3.227774    -0.484630     0.029081
      30     O        2         3.425967     3.228772    -0.654739     0.197196
      31     O        2         3.426512     3.227900    -0.654412     0.198612
      32     O        2         3.253831     3.217607    -0.471439     0.036224
      33     O        2         3.254587     3.218574    -0.473161     0.036013
      34     O        2         3.420507     3.216851    -0.637358     0.203656
      35     O        2         3.420737     3.215559    -0.636296     0.205178
      36     H        3         0.336918     0.334326     0.328756     0.002591
      37     H        3         0.336988     0.334482     0.328530     0.002506
      38     H        3         0.336967     0.334434     0.328598     0.002533
      39     H        3         0.336794     0.334183     0.329023     0.002611
      40     H        3         0.348371     0.340282     0.311347     0.008089
      41     H        3         0.348376     0.340291     0.311333     0.008084
      42     H        3         0.336774     0.334176     0.329050     0.002598
      43     H        3         0.337002     0.334476     0.328522     0.002526
      44     H        3         0.337055     0.334538     0.328407     0.002517
      45     H        3         0.336719     0.334141     0.329141     0.002578
      46     H        3         0.347610     0.339229     0.313162     0.008381
      47     H        3         0.347594     0.339214     0.313192     0.008380
      48     H        3         0.337571     0.335527     0.326901     0.002044
      49     H        3         0.337826     0.335707     0.326467     0.002119
      50     H        3         0.337939     0.335833     0.326229     0.002106
      51     H        3         0.337485     0.335482     0.327033     0.002004
      52     H        3         0.348547     0.340452     0.311001     0.008094
      53     H        3         0.348544     0.340459     0.310997     0.008085
      54     H        3         0.340050     0.338285     0.321665     0.001765
      55     H        3         0.339820     0.338003     0.322177     0.001817
      56     H        3         0.339877     0.338033     0.322091     0.001844
      57     H        3         0.340009     0.338275     0.321716     0.001734
      58     H        3         0.349730     0.341660     0.308609     0.008070
      59     H        3         0.349819     0.341786     0.308394     0.008033
      60     H        3         0.343422     0.341370     0.315207     0.002052
      61     H        3         0.343271     0.341089     0.315639     0.002182
      62     H        3         0.343497     0.341345     0.315158     0.002153
      63     H        3         0.343144     0.341064     0.315792     0.002080
      64     H        3         0.353168     0.347339     0.299494     0.005829
      65     H        3         0.352976     0.347353     0.299670     0.005623
      66     H        3         0.340297     0.338434     0.321269     0.001863
      67     H        3         0.340133     0.338217     0.321650     0.001916
      68     H        3         0.339749     0.337776     0.322475     0.001973
      69     H        3         0.339829     0.337961     0.322210     0.001868
      70     H        3         0.353107     0.347285     0.299608     0.005822
      71     H        3         0.352928     0.347263     0.299809     0.005664
      72     H        3         0.337791     0.335734     0.326474     0.002057
      73     H        3         0.337929     0.335887     0.326184     0.002043
      74     H        3         0.338175     0.336042     0.325783     0.002133
      75     H        3         0.337891     0.335781     0.326328     0.002110
      76     H        3         0.349642     0.341690     0.308669     0.007952
      77     H        3         0.349774     0.341861     0.308365     0.007913
 # Total charge and spin      175.000000   141.000000     6.000000    34.000000

 !-----------------------------------------------------------------------------!

 !-----------------------------------------------------------------------------!
                           Hirshfeld Charges

  #Atom  Element  Kind  Ref Charge     Population       Spin moment  Net charge
      1       Fe     1      16.000   10.736   6.378            4.357     -1.114
      2       Fe     1      16.000   10.736   6.379            4.357     -1.115
      3       Fe     1      16.000   10.742   6.394            4.348     -1.136
      4       Fe     1      16.000   10.728   6.412            4.316     -1.141
      5       Fe     1      16.000   10.420   6.571            3.849     -0.991
      6       Fe     1      16.000   10.726   6.409            4.317     -1.136
      7       Fe     1      16.000   10.737   6.388            4.348     -1.125
      8       O      2       6.000    3.350   3.291            0.059     -0.641
      9       O      2       6.000    3.350   3.291            0.059     -0.641
     10       O      2       6.000    3.171   2.933            0.238     -0.103
     11       O      2       6.000    3.171   2.932            0.239     -0.102
     12       O      2       6.000    3.350   3.291            0.059     -0.641
     13       O      2       6.000    3.350   3.291            0.059     -0.640
     14       O      2       6.000    3.168   2.926            0.242     -0.094
     15       O      2       6.000    3.168   2.926            0.242     -0.094
     16       O      2       6.000    3.353   3.295            0.058     -0.648
     17       O      2       6.000    3.352   3.295            0.058     -0.647
     18       O      2       6.000    3.172   2.934            0.238     -0.105
     19       O      2       6.000    3.172   2.933            0.238     -0.105
     20       O      2       6.000    3.368   3.319            0.049     -0.686
     21       O      2       6.000    3.368   3.318            0.049     -0.686
     22       O      2       6.000    3.173   2.940            0.233     -0.113
     23       O      2       6.000    3.173   2.939            0.234     -0.113
     24       O      2       6.000    3.383   3.357            0.026     -0.741
     25       O      2       6.000    3.383   3.357            0.027     -0.740
     26       O      2       6.000    3.171   2.950            0.222     -0.121
     27       O      2       6.000    3.174   2.952            0.222     -0.126
     28       O      2       6.000    3.367   3.318            0.049     -0.684
     29       O      2       6.000    3.368   3.319            0.049     -0.688
     30       O      2       6.000    3.171   2.949            0.222     -0.120
     31       O      2       6.000    3.174   2.951            0.223     -0.126
     32       O      2       6.000    3.356   3.299            0.056     -0.655
     33       O      2       6.000    3.357   3.301            0.056     -0.659
     34       O      2       6.000    3.172   2.938            0.234     -0.111
     35       O      2       6.000    3.173   2.938            0.235     -0.111
     36       H      3       1.000    0.204   0.203            0.002      0.593
     37       H      3       1.000    0.205   0.203            0.002      0.593
     38       H      3       1.000    0.204   0.203            0.002      0.593
     39       H      3       1.000    0.204   0.203            0.002      0.593
     40       H      3       1.000    0.210   0.203            0.007      0.587
     41       H      3       1.000    0.210   0.203            0.007      0.587
     42       H      3       1.000    0.204   0.203            0.002      0.593
     43       H      3       1.000    0.205   0.203            0.002      0.593
     44       H      3       1.000    0.205   0.203            0.002      0.593
     45       H      3       1.000    0.204   0.203            0.002      0.593
     46       H      3       1.000    0.210   0.202            0.007      0.588
     47       H      3       1.000    0.210   0.202            0.007      0.588
     48       H      3       1.000    0.205   0.204            0.001      0.591
     49       H      3       1.000    0.205   0.204            0.002      0.591
     50       H      3       1.000    0.205   0.204            0.002      0.591
     51       H      3       1.000    0.205   0.204            0.001      0.591
     52       H      3       1.000    0.210   0.203            0.007      0.587
     53       H      3       1.000    0.210   0.203            0.007      0.587
     54       H      3       1.000    0.206   0.205            0.001      0.588
     55       H      3       1.000    0.206   0.205            0.001      0.589
     56       H      3       1.000    0.206   0.205            0.001      0.589
     57       H      3       1.000    0.206   0.205            0.001      0.588
     58       H      3       1.000    0.211   0.204            0.007      0.585
     59       H      3       1.000    0.211   0.204            0.007      0.585
     60       H      3       1.000    0.208   0.207            0.001      0.585
     61       H      3       1.000    0.208   0.207            0.001      0.586
     62       H      3       1.000    0.208   0.207            0.001      0.585
     63       H      3       1.000    0.208   0.207            0.001      0.586
     64       H      3       1.000    0.212   0.207            0.006      0.581
     65       H      3       1.000    0.212   0.207            0.005      0.581
     66       H      3       1.000    0.206   0.205            0.001      0.588
     67       H      3       1.000    0.206   0.205            0.001      0.589
     68       H      3       1.000    0.206   0.205            0.001      0.589
     69       H      3       1.000    0.206   0.205            0.001      0.589
     70       H      3       1.000    0.212   0.207            0.006      0.581
     71       H      3       1.000    0.212   0.207            0.005      0.581
     72       H      3       1.000    0.205   0.204            0.001      0.591
     73       H      3       1.000    0.205   0.204            0.001      0.591
     74       H      3       1.000    0.205   0.204            0.002      0.591
     75       H      3       1.000    0.205   0.204            0.001      0.591
     76       H      3       1.000    0.211   0.204            0.007      0.585
     77       H      3       1.000    0.211   0.204            0.007      0.585

  Total Charge                                                            6.015
 !-----------------------------------------------------------------------------!

 *** WARNING in dft_plus_u.F:1457 :: DFT+U energy contibution is negative ***
 *** possibly due to unphysical Mulliken charges. Check your input, if    ***
 *** this warning persists or try a different method!                     ***


 *** WARNING in dft_plus_u.F:1457 :: DFT+U energy contibution is negative ***
 *** possibly due to unphysical Mulliken charges. Check your input, if    ***
 *** this warning persists or try a different method!                     ***


 ENERGY| Total FORCE_EVAL ( QS ) energy (a.u.):            -1335.530618593895269


 --------  Informations at step =     0 ------------
  Optimization Method        =                   SD
  Total Energy               =     -1335.5306185939
  Used time                  =               28.300
 ---------------------------------------------------

 --------------------------
 OPTIMIZATION STEP:      1
 --------------------------

 Spin 1

 Number of electrons:                                                        175
 Number of occupied orbitals:                                                175
 Number of molecular orbitals:                                               175

 Spin 2

 Number of electrons:                                                        141
 Number of occupied orbitals:                                                141
 Number of molecular orbitals:                                               141

 Number of orbital functions:                                                441
 Number of independent orbital functions:                                    441

 Parameters for the always stable predictor-corrector (ASPC) method:

  ASPC order: 0

  B(1) =   1.000000

 Parameters for the always stable predictor-corrector (ASPC) method:

  ASPC order: 0

  B(1) =   1.000000

 Extrapolation method: ASPC


 SCF WAVEFUNCTION OPTIMIZATION

  ----------------------------------- OT ---------------------------------------
  Minimizer      : CG                  : conjugate gradient
  Preconditioner : FULL_KINETIC        : inversion of T + eS
  Precond_solver : DEFAULT
  Line search    : 2PNT                : 2 energies, one gradient
  stepsize       :    0.15000000                  energy_gap     :    0.20000000
  eps_taylor     :   0.10000E-15                  max_taylor     :             4
  ----------------------------------- OT ---------------------------------------

[...]
 flops    19 x    19 x    13            275159976     100.0%      0.0%      0.0%
 flops     8 x     2 x    15            295505280     100.0%      0.0%      0.0%
 flops     2 x     8 x    15            295505280     100.0%      0.0%      0.0%
 flops    55 x    13 x    56            302702400     100.0%      0.0%      0.0%
 flops    56 x    13 x    55            302702400     100.0%      0.0%      0.0%
 flops     2 x    13 x     2            310591008     100.0%      0.0%      0.0%
 flops    19 x    19 x    15            317492280     100.0%      0.0%      0.0%
 flops    13 x    13 x    55            329489160     100.0%      0.0%      0.0%
 flops    55 x    15 x    56            349272000     100.0%      0.0%      0.0%
 flops    56 x    15 x    55            349272000     100.0%      0.0%      0.0%
 flops     2 x    15 x     2            353293920     100.0%      0.0%      0.0%
 flops    19 x     8 x    13            405498912     100.0%      0.0%      0.0%
 flops     8 x    19 x    13            405498912     100.0%      0.0%      0.0%
 flops    15 x    15 x    55            438669000     100.0%      0.0%      0.0%
 flops    55 x    13 x    13            457537080     100.0%      0.0%      0.0%
 flops    19 x     8 x    15            467883360     100.0%      0.0%      0.0%
 flops     8 x    19 x    15            467883360     100.0%      0.0%      0.0%
 flops    13 x    32 x    56            471883776     100.0%      0.0%      0.0%
 flops    32 x    13 x    56            471883776     100.0%      0.0%      0.0%
 flops    19 x    13 x     2            491769096     100.0%      0.0%      0.0%
 flops     2 x    13 x    19            491769096     100.0%      0.0%      0.0%
 flops    19 x    15 x     2            559382040     100.0%      0.0%      0.0%
 flops     2 x    15 x    19            559382040     100.0%      0.0%      0.0%
 flops    55 x    15 x    15            609147000     100.0%      0.0%      0.0%
 flops    56 x    13 x    32            655269888     100.0%      0.0%      0.0%
 flops    56 x    32 x    13            655269888     100.0%      0.0%      0.0%
 flops    15 x    32 x    56            680601600     100.0%      0.0%      0.0%
 flops    32 x    15 x    56            680601600     100.0%      0.0%      0.0%
 flops     8 x     8 x    13            707336448     100.0%      0.0%      0.0%
 flops    19 x    13 x    19            778634402     100.0%      0.0%      0.0%
 flops     8 x     8 x    15            816157440     100.0%      0.0%      0.0%
 flops     8 x    13 x     2            828242688     100.0%      0.0%      0.0%
 flops     2 x    13 x     8            828242688     100.0%      0.0%      0.0%
 flops    19 x    15 x    19            885688230     100.0%      0.0%      0.0%
 flops     8 x    15 x     2            942117120     100.0%      0.0%      0.0%
 flops     2 x    15 x     8            942117120     100.0%      0.0%      0.0%
 flops    56 x    15 x    32            945100800     100.0%      0.0%      0.0%
 flops    56 x    32 x    15            945100800     100.0%      0.0%      0.0%
 flops    56 x    32 x    56            975421440     100.0%      0.0%      0.0%
 flops    19 x    13 x     8           1311384256     100.0%      0.0%      0.0%
 flops     8 x    13 x    19           1311384256     100.0%      0.0%      0.0%
 flops    19 x    15 x     8           1491685440     100.0%      0.0%      0.0%
 flops     8 x    15 x    19           1491685440     100.0%      0.0%      0.0%
 flops    32 x    32 x    13           1579122688     100.0%      0.0%      0.0%
 flops    13 x    32 x    32           1579122688     100.0%      0.0%      0.0%
 flops    32 x    13 x    32           1579122688     100.0%      0.0%      0.0%
 flops    55 x    13 x    55           2081079000     100.0%      0.0%      0.0%
 flops     2 x     2 x    32           2178296064     100.0%      0.0%      0.0%
 flops     8 x    13 x     8           2208647168     100.0%      0.0%      0.0%
 flops    55 x    15 x    55           2401245000     100.0%      0.0%      0.0%
 flops     8 x    15 x     8           2512312320     100.0%      0.0%      0.0%
 flops    32 x    32 x    15           2668800000     100.0%      0.0%      0.0%
 flops    15 x    32 x    32           2668800000     100.0%      0.0%      0.0%
 flops    32 x    15 x    32           2668800000     100.0%      0.0%      0.0%
 flops    13 x    32 x    55           3244200960     100.0%      0.0%      0.0%
 flops    32 x    13 x    55           3244200960     100.0%      0.0%      0.0%
 flops    19 x     2 x    32           3368760192     100.0%      0.0%      0.0%
 flops     2 x    19 x    32           3368760192     100.0%      0.0%      0.0%
 flops    55 x    32 x    13           4504980480     100.0%      0.0%      0.0%
 flops    55 x    13 x    32           4504980480     100.0%      0.0%      0.0%
 flops    15 x    32 x    55           4679136000     100.0%      0.0%      0.0%
 flops    32 x    15 x    55           4679136000     100.0%      0.0%      0.0%
 flops     8 x     2 x    32           5673701376     100.0%      0.0%      0.0%
 flops     2 x     8 x    32           5673701376     100.0%      0.0%      0.0%
 flops    19 x    19 x    32           6095851776     100.0%      0.0%      0.0%
 flops    55 x    32 x    15           6497568000     100.0%      0.0%      0.0%
 flops    55 x    15 x    32           6497568000     100.0%      0.0%      0.0%
 flops    55 x    32 x    56           6706022400     100.0%      0.0%      0.0%
 flops    56 x    32 x    55           6706022400     100.0%      0.0%      0.0%
 flops     2 x    32 x     2           6826595328     100.0%      0.0%      0.0%
 flops    19 x     8 x    32           8983360512     100.0%      0.0%      0.0%
 flops     8 x    19 x    32           8983360512     100.0%      0.0%      0.0%
 flops    19 x    32 x     2          10808775936     100.0%      0.0%      0.0%
 flops     2 x    32 x    19          10808775936     100.0%      0.0%      0.0%
 flops    32 x    32 x    56          11905990656     100.0%      0.0%      0.0%
 flops     8 x     8 x    32          15670222848     100.0%      0.0%      0.0%
 flops    56 x    32 x    32          16532963328     100.0%      0.0%      0.0%
 flops    19 x    32 x    19          17113895232     100.0%      0.0%      0.0%
 flops     8 x    32 x     2          18204254208     100.0%      0.0%      0.0%
 flops     2 x    32 x     8          18204254208     100.0%      0.0%      0.0%
 flops    19 x    32 x     8          28823402496     100.0%      0.0%      0.0%
 flops     8 x    32 x    19          28823402496     100.0%      0.0%      0.0%
 flops    32 x    32 x    32          44015484928     100.0%      0.0%      0.0%
 flops    55 x    32 x    55          46103904000     100.0%      0.0%      0.0%
 flops     8 x    32 x     8          48544677888     100.0%      0.0%      0.0%
 flops    32 x    32 x    55          81853685760     100.0%      0.0%      0.0%
 flops    55 x    32 x    32         113664122880     100.0%      0.0%      0.0%
 flops inhomo. stacks                           0       0.0%      0.0%      0.0%
 flops total                       666.307934E+09     100.0%      0.0%      0.0%
 flops max/rank                     19.026668E+09     100.0%      0.0%      0.0%
 matmuls inhomo. stacks                         0       0.0%      0.0%      0.0%
 matmuls total                          148713429     100.0%      0.0%      0.0%
 number of processed stacks              19820631     100.0%      0.0%      0.0%
 average stack size                                     7.5       0.0       0.0
 marketing flops                   731.124072E+09
 -------------------------------------------------------------------------------
 # multiplications                          25910
 max memory usage/rank               1.059590E+09
 # max total images/rank                        1
 # max 3D layers                                1
 # MPI messages exchanged                23215360
 MPI messages size (bytes):
  total size                       179.308069E+09
  min size                           0.000000E+00
  max size                          25.088000E+03
  average size                       7.723683E+03
 MPI breakdown and total messages size (bytes):
             size <=      128             8715882                        0
       128 < size <=     8192             5998958              39063609088
      8192 < size <=    32768             8500520             140253770160
     32768 < size <=   131072                   0                        0
    131072 < size <=  4194304                   0                        0
   4194304 < size <= 16777216                   0                        0
  16777216 < size                               0                        0
 -------------------------------------------------------------------------------

 MEMORY| Estimated peak process memory [MiB]                                1011

 -------------------------------------------------------------------------------
 ----                             MULTIGRID INFO                            ----
 -------------------------------------------------------------------------------
 count for grid        1:        2234726          cutoff [a.u.]          325.00
 count for grid        2:        1055835          cutoff [a.u.]          108.33
 count for grid        3:         749552          cutoff [a.u.]           36.11
 count for grid        4:         326134          cutoff [a.u.]           12.04
 count for grid        5:           5760          cutoff [a.u.]            4.01
 count for grid        6:              0          cutoff [a.u.]            1.34
 count for grid        7:              0          cutoff [a.u.]            0.45
 count for grid        8:              0          cutoff [a.u.]            0.15
 count for grid        9:              0          cutoff [a.u.]            0.05
 count for grid       10:              0          cutoff [a.u.]            0.02
 total gridlevel count  :        4372007

 -------------------------------------------------------------------------------
 -                                                                             -
 -                         MESSAGE PASSING PERFORMANCE                         -
 -                                                                             -
 -------------------------------------------------------------------------------

 ROUTINE             CALLS      AVE VOLUME [Bytes]
 MP_Group              885
 MP_Bcast            17043                  20214.
 MP_Allreduce       175574                     65.
 MP_Sync             19034
 MP_Alltoall        141550               11356645.
 MP_ISendRecv      1575504                  79637.
 MP_Wait           4118833
 MP_comm_split         268
 MP_ISend          1312630                 125817.
 MP_IRecv          1310626                 125397.
 MP_Recv               868                  70560.
 MP_Memory         1043640
 -------------------------------------------------------------------------------


 -------------------------------------------------------------------------------
 -                                                                             -
 -                           R E F E R E N C E S                               -
 -                                                                             -
 -------------------------------------------------------------------------------
 
 CP2K version 6.1, the CP2K developers group (2018).
 CP2K is freely available from https://www.cp2k.org/ .

 Schuett, Ole; Messmer, Peter; Hutter, Juerg; VandeVondele, Joost. 
 Electronic Structure Calculations on Graphics Processing Units, John Wiley & Sons, Ltd, 173-190 (2016). 
 GPU-Accelerated Sparse Matrix-Matrix Multiplication for Linear Scaling Density Functional Theory.
 http://dx.doi.org/10.1002/9781118670712.ch8


 Borstnik, U; VandeVondele, J; Weber, V; Hutter, J. 
 PARALLEL COMPUTING, 40 (5-6), 47-58 (2014). 
 Sparse matrix multiplication: The distributed block-compressed sparse
 row library.
 http://dx.doi.org/10.1016/j.parco.2014.03.012


 Hutter, J; Iannuzzi, M; Schiffmann, F; VandeVondele, J. 
 WILEY INTERDISCIPLINARY REVIEWS-COMPUTATIONAL MOLECULAR SCIENCE, 4 (1), 15-25 (2014). 
 CP2K: atomistic simulations of condensed matter systems.
 http://dx.doi.org/10.1002/wcms.1159


 Krack, M. 
 THEORETICAL CHEMISTRY ACCOUNTS, 114 (1-3), 145-152 (2005). 
 Pseudopotentials for H to Kr optimized for gradient-corrected
 exchange-correlation functionals.
 http://dx.doi.org/10.1007/s00214-005-0655-y


 VandeVondele, J; Krack, M; Mohamed, F; Parrinello, M; Chassaing, T;
 Hutter, J. COMPUTER PHYSICS COMMUNICATIONS, 167 (2), 103-128 (2005). 
 QUICKSTEP: Fast and accurate density functional calculations using a
 mixed Gaussian and plane waves approach.
 http://dx.doi.org/10.1016/j.cpc.2004.12.014


 Frigo, M; Johnson, SG. 
 PROCEEDINGS OF THE IEEE, 93 (2), 216-231 (2005). 
 The design and implementation of FFTW3.
 http://dx.doi.org/10.1109/JPROC.2004.840301


 Kolafa, J. 
 JOURNAL OF COMPUTATIONAL CHEMISTRY, 25 (3), 335-342 (2004). 
 Time-reversible always stable predictor-corrector method for molecular dynamics of polarizable molecules.
 http://dx.doi.org/10.1002/jcc.10385


 VandeVondele, J; Hutter, J. 
 JOURNAL OF CHEMICAL PHYSICS, 118 (10), 4365-4369 (2003). 
 An efficient orbital transformation method for electronic structure
 calculations.
 http://dx.doi.org/10.1063/1.1543154


 Hartwigsen, C; Goedecker, S; Hutter, J. 
 PHYSICAL REVIEW B, 58 (7), 3641-3662 (1998). 
 Relativistic separable dual-space Gaussian pseudopotentials from H to Rn.
 http://dx.doi.org/10.1103/PhysRevB.58.3641


 Dudarev, SL; Botton, GA; Savrasov, SY; Humphreys, CJ; Sutton, AP. 
 PHYSICAL REVIEW B, 57 (3), 1505-1509 (1998). 
 Electron-energy-loss spectra and the structural stability of
 nickel oxide: An LSDA+U study.
 http://dx.doi.org/10.1103/PhysRevB.57.1505


 Lippert, G; Hutter, J; Parrinello, M. 
 MOLECULAR PHYSICS, 92 (3), 477-487 (1997). 
 A hybrid Gaussian and plane wave density functional scheme.
 http://dx.doi.org/10.1080/002689797170220


 Dudarev, SL; Manh, DN; Sutton, AP. 
 PHILOSOPHICAL MAGAZINE B, 75 (5), 613-628 (1997). 
 Effect of Mott-Hubbard correlations on the electronic
 structure and structural stability of uranium dioxide.
 http://dx.doi.org/10.1080/13642819708202343


 Goedecker, S; Teter, M; Hutter, J. 
 PHYSICAL REVIEW B, 54 (3), 1703-1710 (1996). 
 Separable dual-space Gaussian pseudopotentials.
 http://dx.doi.org/10.1103/PhysRevB.54.1703


 BECKE, AD. PHYSICAL REVIEW A, 38 (6), 3098-3100 (1988). 
 DENSITY-FUNCTIONAL EXCHANGE-ENERGY APPROXIMATION WITH CORRECT
 ASYMPTOTIC-BEHAVIOR.
 http://dx.doi.org/10.1103/PhysRevA.38.3098


 LEE, CT; YANG, WT; PARR, RG. 
 PHYSICAL REVIEW B, 37 (2), 785-789 (1988). 
 DEVELOPMENT OF THE COLLE-SALVETTI CORRELATION-ENERGY FORMULA INTO A
 FUNCTIONAL OF THE ELECTRON-DENSITY.
 http://dx.doi.org/10.1103/PhysRevB.37.785


 -------------------------------------------------------------------------------
 -                                                                             -
 -                                T I M I N G                                  -
 -                                                                             -
 -------------------------------------------------------------------------------
 SUBROUTINE                       CALLS  ASD         SELF TIME        TOTAL TIME
                                MAXIMUM       AVERAGE  MAXIMUM  AVERAGE  MAXIMUM
 CP2K                                 1  1.0    0.052    0.071 6034.721 6034.748
 cp_geo_opt                           1  2.0    0.014    0.022 6033.779 6033.788
 geoopt_cg                            1  3.0    0.000    0.000 6033.765 6033.774
 cp_cg_main                           1  4.0    0.001    0.002 6033.765 6033.774
 cp_eval_at                          24  8.5    0.003    0.003 6033.755 6033.758
 qs_energies                         24 10.1    0.003    0.005 5942.728 5942.731
 scf_env_do_scf                      24 11.1    0.002    0.003 5879.269 5879.270
 scf_env_do_scf_inner_loop         1008 12.5    0.037    0.080 5736.547 5737.093
 cg_linmin                            2  5.0    0.001    0.003 5650.700 5650.701
 linmin_gold                          2  6.0    0.000    0.000 5650.699 5650.700
 pw_transfer                      46311 17.7    2.755    3.112 4261.313 4312.645
 fft_wrap_pw1pw2                  44265 18.8    0.383    0.421 4234.136 4285.853
 qs_forces                           15  9.5    0.002    0.002 4250.972 4250.973
 rebuild_ks_matrix                 1023 14.4    0.002    0.003 4162.072 4162.270
 qs_ks_build_kohn_sham_matrix      1023 15.4    0.354    0.466 4162.070 4162.267
 fft_wrap_pw1pw2_330              16131 20.3  253.670  262.884 4030.851 4086.391
 qs_ks_update_qs_env               1032 13.5    0.031    0.033 4071.833 4071.998
 cg_dbrent                            2  7.0    0.000    0.000 4068.229 4068.229
 cg_deval1d                          13  8.0    0.000    0.000 4068.225 4068.226
 fft3d_ps                         44265 20.8 1811.695 2101.296 3402.733 3476.117
 qs_vxc_create                     1023 16.4    0.016    0.018 3225.743 3230.258
 xc_vxc_pw_create                   531 17.4   44.113   58.145 2266.770 2271.283
 xc_rho_set_and_dset_create        1023 18.4   92.309  110.877 1942.639 1985.672
 qs_rho_update_rho                 1032 13.5    0.007    0.009 1817.090 1817.183
 calculate_rho_elec                2064 14.5   56.669  243.732 1817.083 1817.176
 density_rs2pw                     2064 15.5    0.182    0.207 1647.137 1710.809
 cg_mnbrak                            2  7.0    0.000    0.000 1582.470 1582.471
 cg_eval1d                            8  8.0    0.000    0.000 1582.470 1582.471
 mp_alltoall_z22v                 44265 22.8 1099.389 1200.360 1099.389 1200.360
 x_to_yz                          11919 22.7  337.835  381.287  955.615  993.984
 xc_exc_calc                        492 17.5    4.357    4.998  958.957  958.996
 rs_pw_transfer                   31371 17.4    0.282    0.351  712.624  740.746
 yz_to_x                          10464 21.3  143.728  155.712  624.472  677.352
 sum_up_and_integrate               531 16.4    6.144    7.187  671.493  671.702
 integrate_v_rspace                1062 17.4   16.524   89.035  665.347  665.752
 potential_pw2rs                   1062 18.4    0.884    1.030  573.931  574.413
 pw_scatter_p                     19353 21.9  316.321  325.899  316.321  325.899
 rs_pw_transfer_RS2PW_330          2112 17.4  111.804  139.103  280.042  311.307
 mp_waitany                      432684 19.4  220.409  274.220  220.409  274.220
 pw_gather_p                      24912 19.8  249.677  260.244  249.677  260.244
 pw_derive                         9324 19.1  187.249  200.494  187.249  200.494
 fft_wrap_pw1pw2_110               3126 19.5    9.750   10.404  161.086  175.808
 pw_copy                          21897 19.2  125.297  147.163  125.297  147.163
 init_scf_loop                       24 12.1    0.001    0.002  142.085  142.087
 -------------------------------------------------------------------------------

 The number of warnings for this run is : 1038
 
 -------------------------------------------------------------------------------
  **** **** ******  **  PROGRAM ENDED AT                 2019-08-09 16:07:56.545
 ***** ** ***  *** **   PROGRAM RAN ON            cpn-u25-23.cbls.ccr.buffalo.ed
 **    ****   ******    PROGRAM RAN BY                                  pavankum
 ***** **    ** ** **   PROGRAM PROCESS ID                                309083
  **** **  *******  **  PROGRAM STOPPED IN /projects/academic/mdupuis2/pavan/VAB
                                           _calculation/results_for_paper/3.1D_F
                                           e_7units/blyp_plusU5/def_opts/gopt_st
                                           ate0
