 DBCSR| Multiplication driver                                               BLAS
 DBCSR| Multrec recursion limit                                              512
 DBCSR| Multiplication stack size                                           1000
 DBCSR| Maximum elements for images                                    UNLIMITED
 DBCSR| Multiplicative factor virtual images                                   1
 DBCSR| Multiplication size stacks                                             3
 DBCSR| Number of 3D layers                                               SINGLE
 DBCSR| Use MPI memory allocation                                              T
 DBCSR| Use RMA algorithm                                                      F
 DBCSR| Use Communication thread                                               T
 DBCSR| Communication thread load                                             87


  **** **** ******  **  PROGRAM STARTED AT               2019-08-02 13:24:35.023
 ***** ** ***  *** **   PROGRAM STARTED ON        cpn-p28-37.cbls.ccr.buffalo.ed
 **    ****   ******    PROGRAM STARTED BY                              pavankum
 ***** **    ** ** **   PROGRAM PROCESS ID                                 40700
  **** **  *******  **  PROGRAM STARTED IN /projects/academic/mdupuis2/pavan/VAB
                                           _calculation/results_for_paper/7.TiO2
                                           _pbe_plus_U10/point_0.2

 CP2K| version string:                                          CP2K version 6.1
 CP2K| source code revision number:                                    svn:18464
 CP2K| cp2kflags: libint fftw3 libxc parallel mpi3 scalapack libderiv_max_am1=5 
 CP2K|            libint_max_am=6
 CP2K| is freely available from                            https://www.cp2k.org/
 CP2K| Program compiled at                          Fri Nov 30 14:17:09 EST 2018
 CP2K| Program compiled on                       srv-p22-12.cbls.ccr.buffalo.edu
 CP2K| Program compiled for                                                local
 CP2K| Data directory path    /projects/academic/mdupuis2/pavan/cp2k/cp2k-6.1/da
 CP2K| Input file name                                                 input.inp

 GLOBAL| Force Environment number                                              1
 GLOBAL| Basis set file name            /projects/academic/mdupuis2/pavan/BASIS_
 GLOBAL| Potential file name            /projects/academic/mdupuis2/pavan/POTENT
 GLOBAL| MM Potential file name                                     MM_POTENTIAL
 GLOBAL| Coordinate file name                           ./intermediate_point.xyz
 GLOBAL| Method name                                                        CP2K
 GLOBAL| Project name                                                    p_tio2_
 GLOBAL| Preferred FFT library                                             FFTW3
 GLOBAL| Preferred diagonalization lib.                                       SL
 GLOBAL| Run type                                                         ENERGY
 GLOBAL| All-to-all communication in single precision                          F
 GLOBAL| FFTs using library dependent lengths                                  T
 GLOBAL| Global print level                                               MEDIUM
 GLOBAL| Total number of message passing processes                            40
 GLOBAL| Number of threads for this process                                    1
 GLOBAL| This output is from process                                           0
 GLOBAL| CPU model name :  Intel(R) Xeon(R) CPU E5-2650 v3 @ 2.30GHz

 MEMORY| system memory details [Kb]
 MEMORY|                        rank 0           min           max       average
 MEMORY| MemTotal            131740876     131740876     131740880     131740878
 MEMORY| MemFree             125113356     125113356     125323852     125218604
 MEMORY| Buffers                496952        496944        496952        496948
 MEMORY| Cached                1853960       1347692       1853960       1600826
 MEMORY| Slab                   412688        412688        444780        428734
 MEMORY| SReclaimable           232924        232924        244964        238944
 MEMORY| MemLikelyFree       127697192     127413452     127697192     127555322


 *** Fundamental physical constants (SI units) ***

 *** Literature: B. J. Mohr and B. N. Taylor,
 ***             CODATA recommended values of the fundamental physical
 ***             constants: 2006, Web Version 5.1
 ***             http://physics.nist.gov/constants

 Speed of light in vacuum [m/s]                             2.99792458000000E+08
 Magnetic constant or permeability of vacuum [N/A**2]       1.25663706143592E-06
 Electric constant or permittivity of vacuum [F/m]          8.85418781762039E-12
 Planck constant (h) [J*s]                                  6.62606896000000E-34
 Planck constant (h-bar) [J*s]                              1.05457162825177E-34
 Elementary charge [C]                                      1.60217648700000E-19
 Electron mass [kg]                                         9.10938215000000E-31
 Electron g factor [ ]                                     -2.00231930436220E+00
 Proton mass [kg]                                           1.67262163700000E-27
 Fine-structure constant                                    7.29735253760000E-03
 Rydberg constant [1/m]                                     1.09737315685270E+07
 Avogadro constant [1/mol]                                  6.02214179000000E+23
 Boltzmann constant [J/K]                                   1.38065040000000E-23
 Atomic mass unit [kg]                                      1.66053878200000E-27
 Bohr radius [m]                                            5.29177208590000E-11

 *** Conversion factors ***

 [u] -> [a.u.]                                              1.82288848426455E+03
 [Angstrom] -> [Bohr] = [a.u.]                              1.88972613288564E+00
 [a.u.] = [Bohr] -> [Angstrom]                              5.29177208590000E-01
 [a.u.] -> [s]                                              2.41888432650478E-17
 [a.u.] -> [fs]                                             2.41888432650478E-02
 [a.u.] -> [J]                                              4.35974393937059E-18
 [a.u.] -> [N]                                              8.23872205491840E-08
 [a.u.] -> [K]                                              3.15774647902944E+05
 [a.u.] -> [kJ/mol]                                         2.62549961709828E+03
 [a.u.] -> [kcal/mol]                                       6.27509468713739E+02
 [a.u.] -> [Pa]                                             2.94210107994716E+13
 [a.u.] -> [bar]                                            2.94210107994716E+08
 [a.u.] -> [atm]                                            2.90362800883016E+08
 [a.u.] -> [eV]                                             2.72113838565563E+01
 [a.u.] -> [Hz]                                             6.57968392072181E+15
 [a.u.] -> [1/cm] (wave numbers)                            2.19474631370540E+05
 [a.u./Bohr**2] -> [1/cm]                                   5.14048714338585E+03
 

 CELL_TOP| Volume [angstrom^3]:                                         2867.349
 CELL_TOP| Vector a [angstrom    13.869     0.000     0.000    |a| =      13.869
 CELL_TOP| Vector b [angstrom     0.000    13.869     0.000    |b| =      13.869
 CELL_TOP| Vector c [angstrom     0.000     0.000    14.907    |c| =      14.907
 CELL_TOP| Angle (b,c), alpha [degree]:                                   90.000
 CELL_TOP| Angle (a,c), beta  [degree]:                                   90.000
 CELL_TOP| Angle (a,b), gamma [degree]:                                   90.000
 CELL_TOP| Numerically orthorhombic:                                         YES

 CELL| Volume [angstrom^3]:                                             2867.349
 CELL| Vector a [angstrom]:      13.869     0.000     0.000    |a| =      13.869
 CELL| Vector b [angstrom]:       0.000    13.869     0.000    |b| =      13.869
 CELL| Vector c [angstrom]:       0.000     0.000    14.907    |c| =      14.907
 CELL| Angle (b,c), alpha [degree]:                                       90.000
 CELL| Angle (a,c), beta  [degree]:                                       90.000
 CELL| Angle (a,b), gamma [degree]:                                       90.000
 CELL| Numerically orthorhombic:                                             YES

 CELL_REF| Volume [angstrom^3]:                                         2867.349
 CELL_REF| Vector a [angstrom    13.869     0.000     0.000    |a| =      13.869
 CELL_REF| Vector b [angstrom     0.000    13.869     0.000    |b| =      13.869
 CELL_REF| Vector c [angstrom     0.000     0.000    14.907    |c| =      14.907
 CELL_REF| Angle (b,c), alpha [degree]:                                   90.000
 CELL_REF| Angle (a,c), beta  [degree]:                                   90.000
 CELL_REF| Angle (a,b), gamma [degree]:                                   90.000
 CELL_REF| Numerically orthorhombic:                                         YES

 *******************************************************************************
 *******************************************************************************
 **                                                                           **
 **     #####                         ##              ##                      **
 **    ##   ##            ##          ##              ##                      **
 **   ##     ##                       ##            ######                    **
 **   ##     ##  ##   ##  ##   #####  ##  ##   ####   ##    #####    #####    **
 **   ##     ##  ##   ##  ##  ##      ## ##   ##      ##   ##   ##  ##   ##   **
 **   ##  ## ##  ##   ##  ##  ##      ####     ###    ##   ######   ######    **
 **    ##  ###   ##   ##  ##  ##      ## ##      ##   ##   ##       ##        **
 **     #######   #####   ##   #####  ##  ##  ####    ##    #####   ##        **
 **           ##                                                    ##        **
 **                                                                           **
 **                                                ... make the atoms dance   **
 **                                                                           **
 **            Copyright (C) by CP2K developers group (2000 - 2018)           **
 **                                                                           **
 *******************************************************************************

 DFT| Spin unrestricted (spin-polarized) Kohn-Sham calculation               UKS
 DFT| Multiplicity                                                             2
 DFT| Number of spin states                                                    2
 DFT| Charge                                                                  -1
 DFT| Self-interaction correction (SIC)                                       NO
 DFT| Cutoffs: density                                              1.000000E-10
 DFT|          gradient                                             1.000000E-10
 DFT|          tau                                                  1.000000E-10
 DFT|          cutoff_smoothing_range                               0.000000E+00
 DFT| XC density smoothing                                                  NONE
 DFT| XC derivatives                                                          PW

 DFT+U| Method                                                          MULLIKEN
 DFT+U| Check atomic kind information for details
 FUNCTIONAL| ROUTINE=NEW
 FUNCTIONAL| PBE:
 FUNCTIONAL| J.P.Perdew, K.Burke, M.Ernzerhof, Phys. Rev. Letter, vol. 77, n 18,
 FUNCTIONAL|  pp. 3865-3868, (1996){spin polarized}                             

 QS| Method:                                                                 GPW
 QS| Density plane wave grid type                        NON-SPHERICAL FULLSPACE
 QS| Number of grid levels:                                                   10
 QS| Density cutoff [a.u.]:                                                325.0
 QS| Multi grid cutoff [a.u.]: 1) grid level                               325.0
 QS|                           2) grid level                               108.3
 QS|                           3) grid level                                36.1
 QS|                           4) grid level                                12.0
 QS|                           5) grid level                                 4.0
 QS|                           6) grid level                                 1.3
 QS|                           7) grid level                                 0.4
 QS|                           8) grid level                                 0.1
 QS|                           9) grid level                                 0.0
 QS|                          10) grid level                                 0.0
 QS| Grid level progression factor:                                          3.0
 QS| Relative density cutoff [a.u.]:                                        30.0
 QS| Consistent realspace mapping and integration 
 QS| Interaction thresholds: eps_pgf_orb:                                1.0E-12
 QS|                         eps_filter_matrix:                          0.0E+00
 QS|                         eps_core_charge:                            1.0E-14
 QS|                         eps_rho_gspace:                             1.0E-12
 QS|                         eps_rho_rspace:                             1.0E-12
 QS|                         eps_gvg_rspace:                             1.0E-06
 QS|                         eps_ppl:                                    1.0E-02
 QS|                         eps_ppnl:                                   1.0E-08


 ATOMIC KIND INFORMATION

  1. Atomic kind: Ti                                    Number of atoms:      90

     Orbital Basis Set                                         SZV-MOLOPT-SR-GTH

       Number of orbital shell sets:                                           1
       Number of orbital shells:                                               4
       Number of primitive Cartesian functions:                                6
       Number of Cartesian basis functions:                                   11
       Number of spherical basis functions:                                   10
       Norm type:                                                              2

       Normalised Cartesian orbitals:

                        Set   Shell   Orbital            Exponent    Coefficient

                          1       1    2s                7.884570       0.015554
                                                         3.894698       0.963603
                                                         1.513589      -0.631435
                                                         0.596768      -0.343022
                                                         0.222222      -0.006534
                                                         0.077078       0.007652

                          1       2    3s                7.884570      -0.009340
                                                         3.894698       0.212624
                                                         1.513589      -0.258368
                                                         0.596768      -0.226206
                                                         0.222222       0.039438
                                                         0.077078       0.107179

                          1       3    3px               7.884570      -2.034794
                                                         3.894698       0.782008
                                                         1.513589       1.253903
                                                         0.596768       0.347823
                                                         0.222222       0.016778
                                                         0.077078      -0.000433
                          1       3    3py               7.884570      -2.034794
                                                         3.894698       0.782008
                                                         1.513589       1.253903
                                                         0.596768       0.347823
                                                         0.222222       0.016778
                                                         0.077078      -0.000433
                          1       3    3pz               7.884570      -2.034794
                                                         3.894698       0.782008
                                                         1.513589       1.253903
                                                         0.596768       0.347823
                                                         0.222222       0.016778
                                                         0.077078      -0.000433

                          1       4    4dx2              7.884570       3.047350
                                                         3.894698       3.289529
                                                         1.513589       1.060616
                                                         0.596768       0.249930
                                                         0.222222       0.038806
                                                         0.077078       0.002319
                          1       4    4dxy              7.884570       5.278165
                                                         3.894698       5.697631
                                                         1.513589       1.837041
                                                         0.596768       0.432892
                                                         0.222222       0.067214
                                                         0.077078       0.004017
                          1       4    4dxz              7.884570       5.278165
                                                         3.894698       5.697631
                                                         1.513589       1.837041
                                                         0.596768       0.432892
                                                         0.222222       0.067214
                                                         0.077078       0.004017
                          1       4    4dy2              7.884570       3.047350
                                                         3.894698       3.289529
                                                         1.513589       1.060616
                                                         0.596768       0.249930
                                                         0.222222       0.038806
                                                         0.077078       0.002319
                          1       4    4dyz              7.884570       5.278165
                                                         3.894698       5.697631
                                                         1.513589       1.837041
                                                         0.596768       0.432892
                                                         0.222222       0.067214
                                                         0.077078       0.004017
                          1       4    4dz2              7.884570       3.047350
                                                         3.894698       3.289529
                                                         1.513589       1.060616
                                                         0.596768       0.249930
                                                         0.222222       0.038806
                                                         0.077078       0.002319

     GTH Potential information for                                   GTH-PBE-q12

       Description:                       Goedecker-Teter-Hutter pseudopotential
                                           Goedecker et al., PRB 54, 1703 (1996)
                                          Hartwigsen et al., PRB 58, 3641 (1998)
                                                      Krack, TCA 114, 145 (2005)

       Gaussian exponent of the core charge distribution:               3.462604
       Electronic configuration (s p d ...):                           4   6   2

       Parameters of the local part of the GTH pseudopotential:

                          rloc        C1          C2          C3          C4
                        0.380000    8.711442   -0.700287

       Parameters of the non-local part of the GTH pseudopotential:

                   l      r(l)      h(i,j,l)

                   0    0.337771    2.575264    3.692971
                                    3.692971   -4.767605
                   1    0.242531   -4.630541    8.870875
                                    8.870875  -10.496161
                   2    0.243317   -9.406653

     A DFT+U correction is applied to atoms of this atomic kind:
       Angular quantum momentum number L:                                      2
       U(eff) = (U - J) value in [eV]:                                     9.987

  2. Atomic kind: O                                     Number of atoms:     180

     Orbital Basis Set                                            SZV-MOLOPT-GTH

       Number of orbital shell sets:                                           1
       Number of orbital shells:                                               2
       Number of primitive Cartesian functions:                                7
       Number of Cartesian basis functions:                                    4
       Number of spherical basis functions:                                    4
       Norm type:                                                              2

       Normalised Cartesian orbitals:

                        Set   Shell   Orbital            Exponent    Coefficient

                          1       1    2s               12.015955      -0.284499
                                                         5.108150      -0.322498
                                                         2.048398       0.148191
                                                         0.832382       0.295475
                                                         0.352316       0.150829
                                                         0.142977       0.015788
                                                         0.046761      -0.000019

                          1       2    3px              12.015955       1.192141
                                                         5.108150       1.354170
                                                         2.048398       0.897267
                                                         0.832382       0.408839
                                                         0.352316       0.116648
                                                         0.142977       0.022184
                                                         0.046761       0.000308
                          1       2    3py              12.015955       1.192141
                                                         5.108150       1.354170
                                                         2.048398       0.897267
                                                         0.832382       0.408839
                                                         0.352316       0.116648
                                                         0.142977       0.022184
                                                         0.046761       0.000308
                          1       2    3pz              12.015955       1.192141
                                                         5.108150       1.354170
                                                         2.048398       0.897267
                                                         0.832382       0.408839
                                                         0.352316       0.116648
                                                         0.142977       0.022184
                                                         0.046761       0.000308

     GTH Potential information for                                    GTH-PBE-q6

       Description:                       Goedecker-Teter-Hutter pseudopotential
                                           Goedecker et al., PRB 54, 1703 (1996)
                                          Hartwigsen et al., PRB 58, 3641 (1998)
                                                      Krack, TCA 114, 145 (2005)

       Gaussian exponent of the core charge distribution:               8.360253
       Electronic configuration (s p d ...):                               2   4

       Parameters of the local part of the GTH pseudopotential:

                          rloc        C1          C2          C3          C4
                        0.244554  -16.667215    2.487311

       Parameters of the non-local part of the GTH pseudopotential:

                   l      r(l)      h(i,j,l)

                   0    0.220956   18.337458
                   1    0.211332


 MOLECULE KIND INFORMATION


 All atoms are their own molecule, skipping detailed information


 TOTAL NUMBERS AND MAXIMUM NUMBERS

  Total number of            - Atomic kinds:                                   2
                             - Atoms:                                        270
                             - Shell sets:                                   270
                             - Shells:                                       720
                             - Primitive Cartesian functions:               1800
                             - Cartesian basis functions:                   1710
                             - Spherical basis functions:                   1620

  Maximum angular momentum of- Orbital basis functions:                        2
                             - Local part of the GTH pseudopotential:          2
                             - Non-local part of the GTH pseudopotential:      3


 MODULE QUICKSTEP:  ATOMIC COORDINATES IN angstrom

  Atom  Kind  Element       X           Y           Z          Z(eff)       Mass

       1     1 Ti  22    0.000565    0.000362    0.000640     12.00      47.8670
       2     1 Ti  22    2.313578    2.309347    1.488367     12.00      47.8670
       3     1 Ti  22    4.632604    0.009602    0.000321     12.00      47.8670
       4     1 Ti  22    6.934577    2.311572    1.496057     12.00      47.8670
       5     1 Ti  22    9.243893    0.001928   -0.000122     12.00      47.8670
       6     1 Ti  22   11.555435    2.313610    1.488272     12.00      47.8670
       7     1 Ti  22   -0.000312    4.622830    0.000630     12.00      47.8670
       8     1 Ti  22    2.312370    6.933823    1.487855     12.00      47.8670
       9     1 Ti  22    4.624930    4.620889   -0.000122     12.00      47.8670
      10     1 Ti  22    6.936612    6.932431    1.488272     12.00      47.8670
      11     1 Ti  22    9.236556    4.613554    0.000344     12.00      47.8670
      12     1 Ti  22   11.554627    6.931620    1.488833     12.00      47.8670
      13     1 Ti  22    0.000072    9.246070    0.000283     12.00      47.8670
      14     1 Ti  22    2.314498   11.560498    1.488838     12.00      47.8670
      15     1 Ti  22    4.623364    9.246565    0.000640     12.00      47.8670
      16     1 Ti  22    6.932351   11.559575    1.488367     12.00      47.8670
      17     1 Ti  22    9.245832    9.245685    0.000630     12.00      47.8670
      18     1 Ti  22   11.556826   11.558367    1.487855     12.00      47.8670
      19     1 Ti  22   -0.000880    0.001480    2.976384     12.00      47.8670
      20     1 Ti  22    2.315247    2.307192    4.466369     12.00      47.8670
      21     1 Ti  22    4.631302    0.008296    2.977659     12.00      47.8670
      22     1 Ti  22    6.934674    2.311662    4.496579     12.00      47.8670
      23     1 Ti  22    9.246453   -0.000006    2.979769     12.00      47.8670
      24     1 Ti  22   11.554725    2.316776    4.466247     12.00      47.8670
      25     1 Ti  22    0.001363    4.621984    2.976365     12.00      47.8670
      26     1 Ti  22    2.313628    6.932924    4.465896     12.00      47.8670
      27     1 Ti  22    4.622999    4.623448    2.979769     12.00      47.8670
      28     1 Ti  22    6.939779    6.931725    4.466245     12.00      47.8670
      29     1 Ti  22    9.237932    4.614929    2.977675     12.00      47.8670
      30     1 Ti  22   11.554429    6.931406    4.469157     12.00      47.8670
      31     1 Ti  22    0.000088    9.246084    2.977302     12.00      47.8670
      32     1 Ti  22    2.314775   11.560774    4.469153     12.00      47.8670
      33     1 Ti  22    4.624478    9.245115    2.976384     12.00      47.8670
      34     1 Ti  22    6.930210   11.561220    4.466367     12.00      47.8670
      35     1 Ti  22    9.244994    9.247358    2.976363     12.00      47.8670
      36     1 Ti  22   11.555935   11.559625    4.465895     12.00      47.8670
      37     1 Ti  22    0.000014    0.000436    5.957967     12.00      47.8670
      38     1 Ti  22    2.312277    2.311765    7.453323     12.00      47.8670
      39     1 Ti  22    4.636605    0.013568    5.958587     12.00      47.8670
      40     1 Ti  22    6.934899    2.311884    7.458706     12.00      47.8670
      41     1 Ti  22    9.243551    0.004780    5.964286     12.00      47.8670
      42     1 Ti  22   11.559010    2.313563    7.453312     12.00      47.8670
      43     1 Ti  22    0.001945    4.624548    5.958075     12.00      47.8670
      44     1 Ti  22    2.313540    6.935111    7.453322     12.00      47.8670
      45     1 Ti  22    4.627788    4.620542    5.964286     12.00      47.8670
      46     1 Ti  22    6.936555    6.936005    7.453312     12.00      47.8670
      47     1 Ti  22    9.232876    4.609876    5.958581     12.00      47.8670
      48     1 Ti  22   11.550200    6.927166    7.454009     12.00      47.8670
      49     1 Ti  22    0.000137    9.246130    5.959282     12.00      47.8670
      50     1 Ti  22    2.319092   11.565091    7.454008     12.00      47.8670
      51     1 Ti  22    4.623443    9.246020    5.957966     12.00      47.8670
      52     1 Ti  22    6.934821   11.558243    7.453322     12.00      47.8670
      53     1 Ti  22    9.247571    9.247912    5.958071     12.00      47.8670
      54     1 Ti  22   11.558105   11.559514    7.453322     12.00      47.8670
      55     1 Ti  22    0.000395   -0.000237    8.948873     12.00      47.8670
      56     1 Ti  22    2.314380    2.307944   10.441150     12.00      47.8670
      57     1 Ti  22    4.637597    0.014553    8.948128     12.00      47.8670
      58     1 Ti  22    6.934741    2.311727   10.410730     12.00      47.8670
      59     1 Ti  22    9.242585    0.006007    8.944288     12.00      47.8670
      60     1 Ti  22   11.555950    2.316399   10.441257     12.00      47.8670
      61     1 Ti  22    0.001839    4.625489    8.948795     12.00      47.8670
      62     1 Ti  22    2.313614    6.933350   10.441486     12.00      47.8670
      63     1 Ti  22    4.629015    4.619575    8.944289     12.00      47.8670
      64     1 Ti  22    6.939400    6.932949   10.441259     12.00      47.8670
      65     1 Ti  22    9.231939    4.608939    8.948131     12.00      47.8670
      66     1 Ti  22   11.553568    6.930540   10.438728     12.00      47.8670
      67     1 Ti  22    0.000138    9.246130    8.948065     12.00      47.8670
      68     1 Ti  22    2.315663   11.561663   10.438734     12.00      47.8670
      69     1 Ti  22    4.622772    9.246404    8.948873     12.00      47.8670
      70     1 Ti  22    6.930971   11.560347   10.441152     12.00      47.8670
      71     1 Ti  22    9.248515    9.247801    8.948797     12.00      47.8670
      72     1 Ti  22   11.556360   11.559609   10.441487     12.00      47.8670
      73     1 Ti  22   -0.001047    0.001345   11.931788     12.00      47.8670
      74     1 Ti  22    2.313979    2.308930   13.419856     12.00      47.8670
      75     1 Ti  22    4.632411    0.009399   11.930225     12.00      47.8670
      76     1 Ti  22    6.934608    2.311601   13.400088     12.00      47.8670
      77     1 Ti  22    9.246241    0.000608   11.926844     12.00      47.8670
      78     1 Ti  22   11.555179    2.314191   13.419988     12.00      47.8670
      79     1 Ti  22    0.001853    4.622458   11.931785     12.00      47.8670
      80     1 Ti  22    2.312662    6.933647   13.420317     12.00      47.8670
      81     1 Ti  22    4.623613    4.623234   11.926845     12.00      47.8670
      82     1 Ti  22    6.937193    6.932177   13.419989     12.00      47.8670
      83     1 Ti  22    9.236894    4.613892   11.930237     12.00      47.8670
      84     1 Ti  22   11.554341    6.931331   13.418549     12.00      47.8670
      85     1 Ti  22    0.000094    9.246089   11.930439     12.00      47.8670
      86     1 Ti  22    2.314792   11.560792   13.418536     12.00      47.8670
      87     1 Ti  22    4.624343    9.244949   11.931789     12.00      47.8670
      88     1 Ti  22    6.931936   11.559972   13.419856     12.00      47.8670
      89     1 Ti  22    9.245472    9.247842   11.931788     12.00      47.8670
      90     1 Ti  22   11.556651   11.558658   13.420317     12.00      47.8670
      91     2 O    8    1.408446    1.409807   -0.000039      6.00      15.9994
      92     2 O    8    3.212803    3.213183   -0.000217      6.00      15.9994
      93     2 O    8    0.902563    3.720969    1.486565      6.00      15.9994
      94     2 O    8    3.719042    0.902530    1.485849      6.00      15.9994
      95     2 O    8    6.030559    1.407558    0.001591      6.00      15.9994
      96     2 O    8    7.838532    3.215531    0.001598      6.00      15.9994
      97     2 O    8    5.522861    3.723198    1.486115      6.00      15.9994
      98     2 O    8    8.346199    0.899859    1.486115      6.00      15.9994
      99     2 O    8   10.656257    1.409880   -0.000224      6.00      15.9994
     100     2 O    8   12.460635    3.213245   -0.000033      6.00      15.9994
     101     2 O    8   10.150033    3.720545    1.485853      6.00      15.9994
     102     2 O    8   12.966523    0.902107    1.486542      6.00      15.9994
     103     2 O    8    1.409548    6.032299   -0.000185      6.00      15.9994
     104     2 O    8    3.213763    7.836531   -0.000178      6.00      15.9994
     105     2 O    8    0.902712    8.343331    1.486533      6.00      15.9994
     106     2 O    8    3.719786    5.526288    1.486295      6.00      15.9994
     107     2 O    8    6.032880    6.033256   -0.000224      6.00      15.9994
     108     2 O    8    7.836245    7.837634   -0.000033      6.00      15.9994
     109     2 O    8    5.525107    8.343522    1.486543      6.00      15.9994
     110     2 O    8    8.343545    5.527032    1.485853      6.00      15.9994
     111     2 O    8   10.656097    6.033095    0.000064      6.00      15.9994
     112     2 O    8   12.460059    7.837058   -0.000180      6.00      15.9994
     113     2 O    8   10.146712    8.345202    1.486581      6.00      15.9994
     114     2 O    8   12.968203    5.523711    1.486581      6.00      15.9994
     115     2 O    8    1.408986   10.654986   -0.000182      6.00      15.9994
     116     2 O    8    3.212967   12.458966    0.000059      6.00      15.9994
     117     2 O    8    0.900876   12.968362    1.486566      6.00      15.9994
     118     2 O    8    3.722363   10.146875    1.486566      6.00      15.9994
     119     2 O    8    6.032809   10.654444   -0.000039      6.00      15.9994
     120     2 O    8    7.836184   12.458801   -0.000217      6.00      15.9994
     121     2 O    8    5.525531   12.965040    1.485848      6.00      15.9994
     122     2 O    8    8.343970   10.148562    1.486565      6.00      15.9994
     123     2 O    8   10.655301   10.655546   -0.000185      6.00      15.9994
     124     2 O    8   12.459532   12.459762   -0.000178      6.00      15.9994
     125     2 O    8   10.149290   12.965784    1.486295      6.00      15.9994
     126     2 O    8   12.966332   10.148711    1.486533      6.00      15.9994
     127     2 O    8    1.407775    1.410174    2.973083      6.00      15.9994
     128     2 O    8    3.212253    3.213064    2.973985      6.00      15.9994
     129     2 O    8    0.901693    3.720757    4.464124      6.00      15.9994
     130     2 O    8    3.711623    0.898978    4.456696      6.00      15.9994
     131     2 O    8    6.029705    1.406701    2.965725      6.00      15.9994
     132     2 O    8    7.839443    3.216441    2.965735      6.00      15.9994
     133     2 O    8    5.520888    3.725263    4.460298      6.00      15.9994
     134     2 O    8    8.348268    0.897886    4.460295      6.00      15.9994
     135     2 O    8   10.656860    1.410041    2.974062      6.00      15.9994
     136     2 O    8   12.461398    3.212959    2.973044      6.00      15.9994
     137     2 O    8   10.157823    3.724302    4.456642      6.00      15.9994
     138     2 O    8   12.967637    0.902598    4.463982      6.00      15.9994
     139     2 O    8    1.409514    6.032302    2.974071      6.00      15.9994
     140     2 O    8    3.213755    7.836529    2.974115      6.00      15.9994
     141     2 O    8    0.902518    8.343469    4.463081      6.00      15.9994
     142     2 O    8    3.718459    5.527642    4.461502      6.00      15.9994
     143     2 O    8    6.033042    6.033858    2.974063      6.00      15.9994
     144     2 O    8    7.835960    7.838396    2.973045      6.00      15.9994
     145     2 O    8    5.525600    8.344637    4.463983      6.00      15.9994
     146     2 O    8    8.347303    5.534821    4.456644      6.00      15.9994
     147     2 O    8   10.656969    6.033967    2.972672      6.00      15.9994
     148     2 O    8   12.460193    7.837191    2.973751      6.00      15.9994
     149     2 O    8   10.146491    8.345536    4.463732      6.00      15.9994
     150     2 O    8   12.968538    5.523490    4.463732      6.00      15.9994
     151     2 O    8    1.408848   10.654847    2.973744      6.00      15.9994
     152     2 O    8    3.212140   12.458140    2.972636      6.00      15.9994
     153     2 O    8    0.900667   12.968688    4.463571      6.00      15.9994
     154     2 O    8    3.722690   10.146668    4.463572      6.00      15.9994
     155     2 O    8    6.033175   10.653772    2.973083      6.00      15.9994
     156     2 O    8    7.836065   12.458251    2.973987      6.00      15.9994
     157     2 O    8    5.521977   12.957611    4.456696      6.00      15.9994
     158     2 O    8    8.343757   10.147689    4.464124      6.00      15.9994
     159     2 O    8   10.655304   10.655513    2.974071      6.00      15.9994
     160     2 O    8   12.459530   12.459754    2.974115      6.00      15.9994
     161     2 O    8   10.150646   12.964458    4.461501      6.00      15.9994
     162     2 O    8   12.966471   10.148517    4.463081      6.00      15.9994
     163     2 O    8    1.408496    1.409667    5.957906      6.00      15.9994
     164     2 O    8    3.212359    3.212673    5.953247      6.00      15.9994
     165     2 O    8    0.903601    3.721255    7.452801      6.00      15.9994
     166     2 O    8    3.720542    0.904136    7.449025      6.00      15.9994
     167     2 O    8    6.003902    1.380870    5.892323      6.00      15.9994
     168     2 O    8    7.865701    3.242691    5.892044      6.00      15.9994
     169     2 O    8    5.507359    3.739828    7.450022      6.00      15.9994
     170     2 O    8    8.362836    0.884348    7.450021      6.00      15.9994
     171     2 O    8   10.656941    1.410495    5.952835      6.00      15.9994
     172     2 O    8   12.460752    3.213497    5.958361      6.00      15.9994
     173     2 O    8   10.148768    3.719127    7.448987      6.00      15.9994
     174     2 O    8   12.965817    0.901953    7.452674      6.00      15.9994
     175     2 O    8    1.409040    6.032696    5.955724      6.00      15.9994
     176     2 O    8    3.213525    7.837142    5.955089      6.00      15.9994
     177     2 O    8    0.902704    8.343787    7.452329      6.00      15.9994
     178     2 O    8    3.714329    5.532535    7.451150      6.00      15.9994
     179     2 O    8    6.033496    6.033939    5.952833      6.00      15.9994
     180     2 O    8    7.836500    7.837749    5.958366      6.00      15.9994
     181     2 O    8    5.524951    8.342812    7.452673      6.00      15.9994
     182     2 O    8    8.342125    5.525764    7.448987      6.00      15.9994
     183     2 O    8   10.659728    6.036725    5.953962      6.00      15.9994
     184     2 O    8   12.461152    7.838147    5.954523      6.00      15.9994
     185     2 O    8   10.147042    8.345314    7.452557      6.00      15.9994
     186     2 O    8   12.968319    5.524038    7.452557      6.00      15.9994
     187     2 O    8    1.407999   10.653999    5.954300      6.00      15.9994
     188     2 O    8    3.209449   12.455448    5.953980      6.00      15.9994
     189     2 O    8    0.900892   12.968194    7.452449      6.00      15.9994
     190     2 O    8    3.722193   10.146893    7.452448      6.00      15.9994
     191     2 O    8    6.032672   10.654490    5.957914      6.00      15.9994
     192     2 O    8    7.835678   12.458354    5.953240      6.00      15.9994
     193     2 O    8    5.527143   12.966536    7.449024      6.00      15.9994
     194     2 O    8    8.344263   10.149600    7.452799      6.00      15.9994
     195     2 O    8   10.655700   10.655036    5.955720      6.00      15.9994
     196     2 O    8   12.460144   12.459524    5.955090      6.00      15.9994
     197     2 O    8   10.155536   12.960321    7.451149      6.00      15.9994
     198     2 O    8   12.966787   10.148700    7.452329      6.00      15.9994
     199     2 O    8    1.409082    1.409435    8.947444      6.00      15.9994
     200     2 O    8    3.212747    3.212482    8.950410      6.00      15.9994
     201     2 O    8    0.901930    3.720707   10.441795      6.00      15.9994
     202     2 O    8    3.712781    0.899473   10.447629      6.00      15.9994
     203     2 O    8    5.997345    1.374307    8.991463      6.00      15.9994
     204     2 O    8    7.872354    3.249342    8.991672      6.00      15.9994
     205     2 O    8    5.517409    3.728943   10.443965      6.00      15.9994
     206     2 O    8    8.351951    0.894406   10.443967      6.00      15.9994
     207     2 O    8   10.656594    1.410707    8.950573      6.00      15.9994
     208     2 O    8   12.460167    3.213720    8.946968      6.00      15.9994
     209     2 O    8   10.156705    3.723831   10.447639      6.00      15.9994
     210     2 O    8   12.967447    0.902689   10.441854      6.00      15.9994
     211     2 O    8    1.408965    6.032768    8.949746      6.00      15.9994
     212     2 O    8    3.213490    7.837268    8.950267      6.00      15.9994
     213     2 O    8    0.902463    8.343577   10.442838      6.00      15.9994
     214     2 O    8    3.717537    5.528721   10.443493      6.00      15.9994
     215     2 O    8    6.033708    6.033593    8.950575      6.00      15.9994
     216     2 O    8    7.836723    7.837165    8.946963      6.00      15.9994
     217     2 O    8    5.525691    8.344447   10.441853      6.00      15.9994
     218     2 O    8    8.346831    5.533704   10.447637      6.00      15.9994
     219     2 O    8   10.660060    6.037056    8.949455      6.00      15.9994
     220     2 O    8   12.461269    7.838264    8.950441      6.00      15.9994
     221     2 O    8   10.146450    8.345448   10.442268      6.00      15.9994
     222     2 O    8   12.968451    5.523448   10.442269      6.00      15.9994
     223     2 O    8    1.407899   10.653898    8.950548      6.00      15.9994
     224     2 O    8    3.209122   12.455120    8.949387      6.00      15.9994
     225     2 O    8    0.900773   12.968758   10.442350      6.00      15.9994
     226     2 O    8    3.722761   10.146773   10.442348      6.00      15.9994
     227     2 O    8    6.032441   10.655075    8.947434      6.00      15.9994
     228     2 O    8    7.835487   12.458741    8.950412      6.00      15.9994
     229     2 O    8    5.522473   12.958767   10.447629      6.00      15.9994
     230     2 O    8    8.343708   10.147925   10.441794      6.00      15.9994
     231     2 O    8   10.655772   10.654960    8.949748      6.00      15.9994
     232     2 O    8   12.460269   12.459489    8.950266      6.00      15.9994
     233     2 O    8   10.151725   12.963534   10.443493      6.00      15.9994
     234     2 O    8   12.966579   10.148461   10.442838      6.00      15.9994
     235     2 O    8    1.408025    1.410159   11.932716      6.00      15.9994
     236     2 O    8    3.212333    3.212925   11.932293      6.00      15.9994
     237     2 O    8    0.902429    3.720900   13.419908      6.00      15.9994
     238     2 O    8    3.717432    0.901744   13.421959      6.00      15.9994
     239     2 O    8    6.023300    1.400288   11.953963      6.00      15.9994
     240     2 O    8    7.845969    3.222965   11.953987      6.00      15.9994
     241     2 O    8    5.522498    3.723591   13.420715      6.00      15.9994
     242     2 O    8    8.346593    0.899496   13.420715      6.00      15.9994
     243     2 O    8   10.656828    1.410220   11.932220      6.00      15.9994
     244     2 O    8   12.461172    3.212990   11.932717      6.00      15.9994
     245     2 O    8   10.151689    3.721361   13.421959      6.00      15.9994
     246     2 O    8   12.966686    0.902203   13.419916      6.00      15.9994
     247     2 O    8    1.409467    6.032341   11.932297      6.00      15.9994
     248     2 O    8    3.213753    7.836624   11.932262      6.00      15.9994
     249     2 O    8    0.902698    8.343357   13.420087      6.00      15.9994
     250     2 O    8    3.719603    5.526506   13.420216      6.00      15.9994
     251     2 O    8    6.033221    6.033826   11.932218      6.00      15.9994
     252     2 O    8    7.835992    7.838170   11.932716      6.00      15.9994
     253     2 O    8    5.525203    8.343685   13.419915      6.00      15.9994
     254     2 O    8    8.344361    5.528688   13.421959      6.00      15.9994
     255     2 O    8   10.657638    6.034636   11.933624      6.00      15.9994
     256     2 O    8   12.460303    7.837300   11.932454      6.00      15.9994
     257     2 O    8   10.146677    8.345223   13.419964      6.00      15.9994
     258     2 O    8   12.968224    5.523676   13.419964      6.00      15.9994
     259     2 O    8    1.408755   10.654754   11.932441      6.00      15.9994
     260     2 O    8    3.211481   12.457480   11.933638      6.00      15.9994
     261     2 O    8    0.900868   12.968413   13.419963      6.00      15.9994
     262     2 O    8    3.722414   10.146867   13.419963      6.00      15.9994
     263     2 O    8    6.033161   10.654021   11.932715      6.00      15.9994
     264     2 O    8    7.835926   12.458330   11.932290      6.00      15.9994
     265     2 O    8    5.524745   12.963428   13.421961      6.00      15.9994
     266     2 O    8    8.343901   10.148428   13.419907      6.00      15.9994
     267     2 O    8   10.655342   10.655465   11.932297      6.00      15.9994
     268     2 O    8   12.459625   12.459752   11.932263      6.00      15.9994
     269     2 O    8   10.149507   12.965602   13.420216      6.00      15.9994
     270     2 O    8   12.966358   10.148697   13.420086      6.00      15.9994




 SCF PARAMETERS         Density guess:                                   RESTART
                        --------------------------------------------------------
                        max_scf:                                             500
                        max_scf_history:                                       0
                        max_diis:                                              4
                        --------------------------------------------------------
                        eps_scf:                                        1.00E-05
                        eps_scf_history:                                0.00E+00
                        eps_diis:                                       5.00E-01
                        eps_eigval:                                     1.00E-05
                        --------------------------------------------------------
                        level_shift [a.u.]:                                 0.00
                        --------------------------------------------------------
                        Mixing method:                            BROYDEN_MIXING
                                                charge density mixing in g-space
                        --------------------------------------------------------
                        Outer loop SCF in use 
                        No variables optimised in outer loop
                        eps_scf                                         1.00E-05
                        max_scf                                              500
                        No outer loop optimization
                        step_size                                       5.00E-01

 PW_GRID| Information for grid number                                          1
 PW_GRID| Grid distributed over                                    40 processors
 PW_GRID| Real space group dimensions                                    40    1
 PW_GRID| the grid is blocked:                                                NO
 PW_GRID| Cutoff [a.u.]                                                    325.0
 PW_GRID| spherical cutoff:                                                   NO
 PW_GRID|   Bounds   1           -108     107                Points:         216
 PW_GRID|   Bounds   2           -108     107                Points:         216
 PW_GRID|   Bounds   3           -115     115                Points:         231
 PW_GRID| Volume element (a.u.^3)  0.1795E-02     Volume (a.u.^3)     19349.8300
 PW_GRID| Grid span                                                    FULLSPACE
 PW_GRID|   Distribution                         Average         Max         Min
 PW_GRID|   G-Vectors                           269438.4      269568      269352
 PW_GRID|   G-Rays                                1247.4        1248        1247
 PW_GRID|   Real Space Points                   269438.4      299376      249480

 PW_GRID| Information for grid number                                          2
 PW_GRID| Grid distributed over                                    40 processors
 PW_GRID| Real space group dimensions                                    40    1
 PW_GRID| the grid is blocked:                                                NO
 PW_GRID| Cutoff [a.u.]                                                    108.3
 PW_GRID| spherical cutoff:                                                   NO
 PW_GRID|   Bounds   1            -63      62                Points:         126
 PW_GRID|   Bounds   2            -63      62                Points:         126
 PW_GRID|   Bounds   3            -66      65                Points:         132
 PW_GRID| Volume element (a.u.^3)  0.9233E-02     Volume (a.u.^3)     19349.8300
 PW_GRID| Grid span                                                    FULLSPACE
 PW_GRID|   Distribution                         Average         Max         Min
 PW_GRID|   G-Vectors                            52390.8       52794       52290
 PW_GRID|   G-Rays                                 415.8         419         415
 PW_GRID|   Real Space Points                    52390.8       66528       49896

 PW_GRID| Information for grid number                                          3
 PW_GRID| Grid distributed over                                    40 processors
 PW_GRID| Real space group dimensions                                    40    1
 PW_GRID| the grid is blocked:                                                NO
 PW_GRID| Cutoff [a.u.]                                                     36.1
 PW_GRID| spherical cutoff:                                                   NO
 PW_GRID|   Bounds   1            -36      35                Points:          72
 PW_GRID|   Bounds   2            -36      35                Points:          72
 PW_GRID|   Bounds   3            -38      38                Points:          77
 PW_GRID| Volume element (a.u.^3)  0.4848E-01     Volume (a.u.^3)     19349.8300
 PW_GRID| Grid span                                                    FULLSPACE
 PW_GRID|   Distribution                         Average         Max         Min
 PW_GRID|   G-Vectors                             9979.2       10008        9936
 PW_GRID|   G-Rays                                 138.6         139         138
 PW_GRID|   Real Space Points                     9979.2       11088        5544

 PW_GRID| Information for grid number                                          4
 PW_GRID| Grid distributed over                                    40 processors
 PW_GRID| Real space group dimensions                                    40    1
 PW_GRID| the grid is blocked:                                                NO
 PW_GRID| Cutoff [a.u.]                                                     12.0
 PW_GRID| spherical cutoff:                                                   NO
 PW_GRID|   Bounds   1            -21      20                Points:          42
 PW_GRID|   Bounds   2            -21      20                Points:          42
 PW_GRID|   Bounds   3            -22      21                Points:          44
 PW_GRID| Volume element (a.u.^3)  0.2493         Volume (a.u.^3)     19349.8300
 PW_GRID| Grid span                                                    FULLSPACE
 PW_GRID|   Distribution                         Average         Max         Min
 PW_GRID|   G-Vectors                             1940.4        2058        1848
 PW_GRID|   G-Rays                                  46.2          49          44
 PW_GRID|   Real Space Points                     1940.4        3696        1848

 PW_GRID| Information for grid number                                          5
 PW_GRID| Grid distributed over                                    40 processors
 PW_GRID| Real space group dimensions                                     5    8
 PW_GRID| the grid is blocked:                                                NO
 PW_GRID| Cutoff [a.u.]                                                      4.0
 PW_GRID| spherical cutoff:                                                   NO
 PW_GRID|   Bounds   1            -12      11                Points:          24
 PW_GRID|   Bounds   2            -12      11                Points:          24
 PW_GRID|   Bounds   3            -12      12                Points:          25
 PW_GRID| Volume element (a.u.^3)   1.344         Volume (a.u.^3)     19349.8300
 PW_GRID| Grid span                                                    FULLSPACE
 PW_GRID|   Distribution                         Average         Max         Min
 PW_GRID|   G-Vectors                              360.0         408         336
 PW_GRID|   G-Rays                                  15.0          17          14
 PW_GRID|   Real Space Points                      360.0         375         300

 PW_GRID| Information for grid number                                          6
 PW_GRID| Grid distributed over                                    40 processors
 PW_GRID| Real space group dimensions                                     5    8
 PW_GRID| the grid is blocked:                                                NO
 PW_GRID| Cutoff [a.u.]                                                      1.3
 PW_GRID| spherical cutoff:                                                   NO
 PW_GRID|   Bounds   1             -7       6                Points:          14
 PW_GRID|   Bounds   2             -7       6                Points:          14
 PW_GRID|   Bounds   3             -7       7                Points:          15
 PW_GRID| Volume element (a.u.^3)   6.582         Volume (a.u.^3)     19349.8300
 PW_GRID| Grid span                                                    FULLSPACE
 PW_GRID|   Distribution                         Average         Max         Min
 PW_GRID|   G-Vectors                               73.5          98          56
 PW_GRID|   G-Rays                                   5.2           7           4
 PW_GRID|   Real Space Points                       73.5          90          30

 PW_GRID| Information for grid number                                          7
 PW_GRID| Grid distributed over                                    40 processors
 PW_GRID| Real space group dimensions                                     5    8
 PW_GRID| the grid is blocked:                                                NO
 PW_GRID| Cutoff [a.u.]                                                      0.4
 PW_GRID| spherical cutoff:                                                   NO
 PW_GRID|   Bounds   1             -3       3                Points:           7
 PW_GRID|   Bounds   2             -3       3                Points:           7
 PW_GRID|   Bounds   3             -4       4                Points:           9
 PW_GRID| Volume element (a.u.^3)   43.88         Volume (a.u.^3)     19349.8300
 PW_GRID| Grid span                                                    FULLSPACE
 PW_GRID|   Distribution                         Average         Max         Min
 PW_GRID|   G-Vectors                               11.0          28           0
 PW_GRID|   G-Rays                                   1.6           4           0
 PW_GRID|   Real Space Points                       11.0          18           0

 PW_GRID| Information for grid number                                          8
 PW_GRID| Grid distributed over                                    40 processors
 PW_GRID| Real space group dimensions                                     5    8
 PW_GRID| the grid is blocked:                                                NO
 PW_GRID| Cutoff [a.u.]                                                      0.1
 PW_GRID| spherical cutoff:                                                   NO
 PW_GRID|   Bounds   1             -2       2                Points:           5
 PW_GRID|   Bounds   2             -2       2                Points:           5
 PW_GRID|   Bounds   3             -2       2                Points:           5
 PW_GRID| Volume element (a.u.^3)   154.8         Volume (a.u.^3)     19349.8300
 PW_GRID| Grid span                                                    FULLSPACE
 PW_GRID|   Distribution                         Average         Max         Min
 PW_GRID|   G-Vectors                                3.1          10           0
 PW_GRID|   G-Rays                                   0.6           2           0
 PW_GRID|   Real Space Points                        3.1           5           0

 PW_GRID| Information for grid number                                          9
 PW_GRID| Grid distributed over                                    40 processors
 PW_GRID| Real space group dimensions                                     5    8
 PW_GRID| the grid is blocked:                                                NO
 PW_GRID| Cutoff [a.u.]                                                      0.0
 PW_GRID| spherical cutoff:                                                   NO
 PW_GRID|   Bounds   1             -1       1                Points:           3
 PW_GRID|   Bounds   2             -1       1                Points:           3
 PW_GRID|   Bounds   3             -1       1                Points:           3
 PW_GRID| Volume element (a.u.^3)   716.7         Volume (a.u.^3)     19349.8300
 PW_GRID| Grid span                                                    FULLSPACE
 PW_GRID|   Distribution                         Average         Max         Min
 PW_GRID|   G-Vectors                                0.7           3           0
 PW_GRID|   G-Rays                                   0.2           1           0
 PW_GRID|   Real Space Points                        0.7           3           0

 PW_GRID| Information for grid number                                         10
 PW_GRID| Grid distributed over                                    40 processors
 PW_GRID| Real space group dimensions                                     5    8
 PW_GRID| the grid is blocked:                                                NO
 PW_GRID| Cutoff [a.u.]                                                      0.0
 PW_GRID| spherical cutoff:                                                   NO
 PW_GRID|   Bounds   1              0       0                Points:           1
 PW_GRID|   Bounds   2              0       0                Points:           1
 PW_GRID|   Bounds   3              0       0                Points:           1
 PW_GRID| Volume element (a.u.^3)  0.1935E+05     Volume (a.u.^3)     19349.8300
 PW_GRID| Grid span                                                    FULLSPACE
 PW_GRID|   Distribution                         Average         Max         Min
 PW_GRID|   G-Vectors                                0.0           1           0
 PW_GRID|   G-Rays                                   0.0           1           0
 PW_GRID|   Real Space Points                        0.0           1           0

 POISSON| Solver                                                        PERIODIC
 POISSON| Periodicity                                                        XYZ

 RS_GRID| Information for grid number                                          1
 RS_GRID|   Bounds   1           -108     107                Points:         216
 RS_GRID|   Bounds   2           -108     107                Points:         216
 RS_GRID|   Bounds   3           -115     115                Points:         231
 RS_GRID| Real space distribution over                                  5 groups
 RS_GRID| Real space distribution along direction                              2
 RS_GRID| Border size                                                         27
 RS_GRID| Real space distribution over                                  8 groups
 RS_GRID| Real space distribution along direction                              3
 RS_GRID| Border size                                                         27
 RS_GRID|   Distribution                         Average         Max         Min
 RS_GRID|   Planes                                  97.2          98          97
 RS_GRID|   Distribution                         Average         Max         Min
 RS_GRID|   Planes                                  82.9          83          82

 RS_GRID| Information for grid number                                          2
 RS_GRID|   Bounds   1            -63      62                Points:         126
 RS_GRID|   Bounds   2            -63      62                Points:         126
 RS_GRID|   Bounds   3            -66      65                Points:         132
 RS_GRID| Real space distribution over                                  5 groups
 RS_GRID| Real space distribution along direction                              2
 RS_GRID| Border size                                                         26
 RS_GRID| Real space distribution over                                  8 groups
 RS_GRID| Real space distribution along direction                              3
 RS_GRID| Border size                                                         26
 RS_GRID|   Distribution                         Average         Max         Min
 RS_GRID|   Planes                                  77.2          78          77
 RS_GRID|   Distribution                         Average         Max         Min
 RS_GRID|   Planes                                  68.5          69          68

 RS_GRID| Information for grid number                                          3
 RS_GRID|   Bounds   1            -36      35                Points:          72
 RS_GRID|   Bounds   2            -36      35                Points:          72
 RS_GRID|   Bounds   3            -38      38                Points:          77
 RS_GRID| Real space fully replicated
 RS_GRID| Group size                                                           1

 RS_GRID| Information for grid number                                          4
 RS_GRID|   Bounds   1            -21      20                Points:          42
 RS_GRID|   Bounds   2            -21      20                Points:          42
 RS_GRID|   Bounds   3            -22      21                Points:          44
 RS_GRID| Real space fully replicated
 RS_GRID| Group size                                                           1

 RS_GRID| Information for grid number                                          5
 RS_GRID|   Bounds   1            -12      11                Points:          24
 RS_GRID|   Bounds   2            -12      11                Points:          24
 RS_GRID|   Bounds   3            -12      12                Points:          25
 RS_GRID| Real space fully replicated
 RS_GRID| Group size                                                           1

 RS_GRID| Information for grid number                                          6
 RS_GRID|   Bounds   1             -7       6                Points:          14
 RS_GRID|   Bounds   2             -7       6                Points:          14
 RS_GRID|   Bounds   3             -7       7                Points:          15
 RS_GRID| Real space fully replicated
 RS_GRID| Group size                                                           1

 RS_GRID| Information for grid number                                          7
 RS_GRID|   Bounds   1             -3       3                Points:           7
 RS_GRID|   Bounds   2             -3       3                Points:           7
 RS_GRID|   Bounds   3             -4       4                Points:           9
 RS_GRID| Real space fully replicated
 RS_GRID| Group size                                                           1

 RS_GRID| Information for grid number                                          8
 RS_GRID|   Bounds   1             -2       2                Points:           5
 RS_GRID|   Bounds   2             -2       2                Points:           5
 RS_GRID|   Bounds   3             -2       2                Points:           5
 RS_GRID| Real space fully replicated
 RS_GRID| Group size                                                           1

 RS_GRID| Information for grid number                                          9
 RS_GRID|   Bounds   1             -1       1                Points:           3
 RS_GRID|   Bounds   2             -1       1                Points:           3
 RS_GRID|   Bounds   3             -1       1                Points:           3
 RS_GRID| Real space fully replicated
 RS_GRID| Group size                                                           1

 RS_GRID| Information for grid number                                         10
 RS_GRID|   Bounds   1              0       0                Points:           1
 RS_GRID|   Bounds   2              0       0                Points:           1
 RS_GRID|   Bounds   3              0       0                Points:           1
 RS_GRID| Real space fully replicated
 RS_GRID| Group size                                                           1

 Spin 1

 Number of electrons:                                                       1081
 Number of occupied orbitals:                                               1081
 Number of molecular orbitals:                                              1081

 Spin 2

 Number of electrons:                                                       1080
 Number of occupied orbitals:                                               1080
 Number of molecular orbitals:                                              1080

 Number of orbital functions:                                               1620
 Number of independent orbital functions:                                   1620

 Extrapolation method: initial_guess


 SCF WAVEFUNCTION OPTIMIZATION

  Step     Update method      Time    Convergence         Total energy    Change
  ------------------------------------------------------------------------------
     1 NoMix/Diag. 0.40E+00    9.8     0.00603275     -8111.7758350537 -8.11E+03
     2 Broy./Diag. 0.40E+00   16.8     0.00308118     -8111.7731266358  2.71E-03
     3 Broy./Diag. 0.40E+00   16.8     0.00087125     -8111.7760936831 -2.97E-03
     4 Broy./Diag. 0.40E+00   16.9     0.00038753     -8111.7787620582 -2.67E-03
     5 Broy./Diag. 0.40E+00   16.9     0.00014935     -8111.7787363177  2.57E-05
     6 Broy./Diag. 0.40E+00   17.0     0.00005078     -8111.7773205354  1.42E-03
     7 Broy./Diag. 0.40E+00   16.9     0.00006700     -8111.7770453921  2.75E-04
     8 Broy./Diag. 0.40E+00   16.9     0.00003561     -8111.7770197437  2.56E-05
     9 Broy./Diag. 0.40E+00   17.3     0.00001924     -8111.7769425418  7.72E-05
    10 Broy./Diag. 0.40E+00   17.0     0.00000716     -8111.7770243629 -8.18E-05

  *** SCF run converged in    10 steps ***


  Electronic density on regular grids:      -2160.9999999994        0.0000000006
  Core density on regular grids:             2159.9999999994       -0.0000000006
  Total charge density on r-space grids:       -1.0000000000
  Total charge density g-space grids:          -1.0000000000

  Overlap energy of the core charge distribution:               0.00000000000200
  Self energy of the core charge distribution:             -17095.63438313942970
  Core Hamiltonian energy:                                   4650.80109675634412
  Hartree energy:                                            5621.22124436417380
  Exchange-correlation energy:                              -1307.30789506722112

  DFT+U energy:                                                19.14291272323150

  Total energy:                                             -8111.77702436289837

  outer SCF iter =    1 RMS gradient =   0.72E-05 energy =      -8111.7770243629
  outer SCF loop converged in   1 iterations or   10 steps


  Integrated absolute spin density  :                               1.0907713396
  Ideal and single determinant S**2 :                    0.750000       0.754879

 !-----------------------------------------------------------------------------!
                     Mulliken Population Analysis

 #  Atom  Element  Kind  Atomic population (alpha,beta) Net charge  Spin moment
       1     Ti       1         5.244775     5.244779     1.510446    -0.000004
       2     Ti       1         5.244711     5.244708     1.510581     0.000002
       3     Ti       1         5.245208     5.245212     1.509580    -0.000004
       4     Ti       1         5.245509     5.244986     1.509506     0.000523
       5     Ti       1         5.244732     5.244735     1.510534    -0.000003
       6     Ti       1         5.244719     5.244716     1.510565     0.000002
       7     Ti       1         5.244768     5.244772     1.510460    -0.000004
       8     Ti       1         5.244825     5.244840     1.510336    -0.000015
       9     Ti       1         5.244732     5.244735     1.510534    -0.000003
      10     Ti       1         5.244719     5.244716     1.510565     0.000002
      11     Ti       1         5.245208     5.245211     1.509581    -0.000004
      12     Ti       1         5.245356     5.245365     1.509279    -0.000009
      13     Ti       1         5.245102     5.245111     1.509787    -0.000008
      14     Ti       1         5.245360     5.245370     1.509270    -0.000009
      15     Ti       1         5.244775     5.244779     1.510446    -0.000004
      16     Ti       1         5.244711     5.244708     1.510581     0.000002
      17     Ti       1         5.244768     5.244772     1.510460    -0.000004
      18     Ti       1         5.244825     5.244840     1.510336    -0.000015
      19     Ti       1         5.244734     5.244741     1.510525    -0.000006
      20     Ti       1         5.244613     5.244625     1.510762    -0.000012
      21     Ti       1         5.244646     5.244838     1.510516    -0.000191
      22     Ti       1         5.242778     5.247347     1.509874    -0.004569
      23     Ti       1         5.244709     5.244726     1.510565    -0.000016
      24     Ti       1         5.244611     5.244623     1.510766    -0.000012
      25     Ti       1         5.244740     5.244746     1.510514    -0.000006
      26     Ti       1         5.244773     5.244756     1.510471     0.000017
      27     Ti       1         5.244710     5.244726     1.510565    -0.000016
      28     Ti       1         5.244611     5.244623     1.510766    -0.000012
      29     Ti       1         5.244648     5.244840     1.510511    -0.000192
      30     Ti       1         5.245385     5.245170     1.509444     0.000215
      31     Ti       1         5.245083     5.245068     1.509850     0.000015
      32     Ti       1         5.245389     5.245175     1.509436     0.000215
      33     Ti       1         5.244735     5.244741     1.510525    -0.000006
      34     Ti       1         5.244613     5.244625     1.510762    -0.000012
      35     Ti       1         5.244740     5.244746     1.510514    -0.000006
      36     Ti       1         5.244773     5.244756     1.510471     0.000017
      37     Ti       1         5.244764     5.244760     1.510477     0.000004
      38     Ti       1         5.244865     5.244897     1.510238    -0.000032
      39     Ti       1         5.247721     5.243890     1.508389     0.003832
      40     Ti       1         5.788486     4.788459     1.423056     1.000027
      41     Ti       1         5.246532     5.245274     1.508194     0.001258
      42     Ti       1         5.244843     5.244874     1.510283    -0.000032
      43     Ti       1         5.244762     5.244759     1.510479     0.000003
      44     Ti       1         5.244729     5.244599     1.510672     0.000131
      45     Ti       1         5.246533     5.245275     1.508192     0.001258
      46     Ti       1         5.244842     5.244874     1.510283    -0.000032
      47     Ti       1         5.247723     5.243896     1.508381     0.003827
      48     Ti       1         5.246673     5.245514     1.507814     0.001159
      49     Ti       1         5.245288     5.244995     1.509717     0.000292
      50     Ti       1         5.246680     5.245520     1.507800     0.001159
      51     Ti       1         5.244764     5.244760     1.510476     0.000004
      52     Ti       1         5.244865     5.244897     1.510238    -0.000032
      53     Ti       1         5.244762     5.244759     1.510479     0.000003
      54     Ti       1         5.244729     5.244599     1.510672     0.000131
      55     Ti       1         5.244821     5.244818     1.510362     0.000003
      56     Ti       1         5.244961     5.244978     1.510061    -0.000016
      57     Ti       1         5.247911     5.243685     1.508404     0.004225
      58     Ti       1         5.243997     5.248892     1.507111    -0.004895
      59     Ti       1         5.246895     5.245626     1.507479     0.001269
      60     Ti       1         5.244957     5.244973     1.510070    -0.000016
      61     Ti       1         5.244820     5.244817     1.510364     0.000003
      62     Ti       1         5.244719     5.244706     1.510576     0.000013
      63     Ti       1         5.246896     5.245627     1.507477     0.001269
      64     Ti       1         5.244957     5.244973     1.510070    -0.000016
      65     Ti       1         5.247909     5.243690     1.508402     0.004219
      66     Ti       1         5.245507     5.245272     1.509221     0.000235
      67     Ti       1         5.245296     5.244995     1.509709     0.000300
      68     Ti       1         5.245514     5.245279     1.509207     0.000235
      69     Ti       1         5.244821     5.244818     1.510361     0.000003
      70     Ti       1         5.244961     5.244978     1.510061    -0.000016
      71     Ti       1         5.244819     5.244817     1.510364     0.000003
      72     Ti       1         5.244719     5.244706     1.510576     0.000013
      73     Ti       1         5.244794     5.244801     1.510405    -0.000006
      74     Ti       1         5.244795     5.244793     1.510412     0.000002
      75     Ti       1         5.244670     5.244819     1.510512    -0.000149
      76     Ti       1         5.245804     5.245228     1.508969     0.000576
      77     Ti       1         5.245047     5.245060     1.509893    -0.000013
      78     Ti       1         5.244802     5.244799     1.510399     0.000002
      79     Ti       1         5.244803     5.244809     1.510388    -0.000006
      80     Ti       1         5.244804     5.244820     1.510375    -0.000016
      81     Ti       1         5.245047     5.245061     1.509892    -0.000013
      82     Ti       1         5.244802     5.244799     1.510399     0.000002
      83     Ti       1         5.244671     5.244820     1.510509    -0.000149
      84     Ti       1         5.245329     5.245335     1.509336    -0.000007
      85     Ti       1         5.245056     5.245040     1.509904     0.000017
      86     Ti       1         5.245334     5.245341     1.509325    -0.000007
      87     Ti       1         5.244795     5.244801     1.510404    -0.000006
      88     Ti       1         5.244795     5.244793     1.510412     0.000002
      89     Ti       1         5.244803     5.244809     1.510388    -0.000006
      90     Ti       1         5.244804     5.244820     1.510375    -0.000016
      91     O        2         3.379715     3.379712    -0.759428     0.000003
      92     O        2         3.379797     3.379799    -0.759596    -0.000002
      93     O        2         3.379762     3.379765    -0.759527    -0.000003
      94     O        2         3.379916     3.379913    -0.759829     0.000003
      95     O        2         3.380911     3.380972    -0.761883    -0.000060
      96     O        2         3.380913     3.380973    -0.761887    -0.000060
      97     O        2         3.379653     3.379697    -0.759350    -0.000044
      98     O        2         3.379653     3.379697    -0.759350    -0.000044
      99     O        2         3.379792     3.379794    -0.759586    -0.000002
     100     O        2         3.379702     3.379699    -0.759401     0.000003
     101     O        2         3.379914     3.379912    -0.759826     0.000003
     102     O        2         3.379769     3.379771    -0.759540    -0.000003
     103     O        2         3.379716     3.379710    -0.759427     0.000006
     104     O        2         3.379710     3.379704    -0.759414     0.000006
     105     O        2         3.379858     3.379859    -0.759717    -0.000001
     106     O        2         3.380224     3.380214    -0.760438     0.000010
     107     O        2         3.379792     3.379794    -0.759586    -0.000002
     108     O        2         3.379702     3.379699    -0.759401     0.000003
     109     O        2         3.379769     3.379771    -0.759540    -0.000003
[...]
       0.23842446       0.23866300       0.23888534       0.23893546
       0.23896972       0.23912877       0.23929572       0.23929915
       0.23939747       0.23956454       0.23958750       0.23978442
       0.24006361       0.24073795       0.24147538       0.24192304
       0.24207094       0.24222608       0.24249826       0.24276707
       0.24279615       0.24295681       0.24321176       0.24388648
       0.24397035       0.24494460       0.24507404       0.24573353
       0.24577933       0.24587090       0.24593135       0.24603047
       0.24614336       0.24624824       0.24654550       0.24668207
       0.24694182       0.24695837       0.24701006       0.24704713
       0.24871033       0.25196173       0.25213027       0.25234877
       0.25235640       0.25248156       0.25268240       0.25273920
       0.25275471       0.25294463       0.25306592       0.25308839
       0.25323238       0.25356631       0.25370926       0.25372624
       0.25442590       0.25442606       0.25471743       0.25494456
       0.25505284       0.25531521       0.25538304       0.25570813
       0.25604837       0.25650902       0.25657892       0.25735120
       0.25768856       0.25807529       0.25822333       0.25996009
       0.26068898       0.26070155       0.26075225       0.26086592
       0.26105297       0.26120895       0.26128002       0.26172033
       0.26173235       0.26190329       0.26194537       0.26211483
       0.26219129       0.26221473       0.26223751       0.26289914
       0.26295220       0.26323683       0.26361398       0.26388399
       0.26416679       0.26425324       0.26429741       0.26440541
       0.26448010       0.26448960       0.26476818       0.26494728
       0.26515033       0.26515888       0.26555305       0.26575175
       0.26697035       0.26719453       0.26721572       0.26739779
       0.26742584       0.26799349       0.26811514       0.26993072
       0.27388462       0.27388938       0.27410199       0.27444592
       0.27449686       0.27450419       0.27470318       0.27479319
       0.27904450       0.27928312       0.27930009       0.27939633
       0.27942843       0.27964420       0.27970715       0.28071800
       0.28097232       0.28098423       0.28110359       0.28121705
       0.28124144       0.28141803       0.28149330       0.28161589
       0.28168028       0.28171597       0.28219571       0.28221580
       0.28274185       0.28274495       0.28277376       0.28284968
       0.28323918       0.28331396       0.28364550       0.28373014
       0.28401523       0.28412313       0.28425761       0.28435085
       0.28464294       0.28470379       0.28474233       0.28490380
       0.28500066       0.28500118       0.28508069       0.28542403
       0.28553922       0.28563132       0.28588259       0.28606484
       0.28616771       0.28652421       0.28659541       0.28661849
       0.28666378       0.28671745       0.28844421       0.28900214
       0.28941531       0.28942463       0.29133674       0.29165630
       0.29218658       0.29346762       0.29381203       0.29404591
       0.29443099       0.29488635       0.29502685       0.29524791
       0.29553155       0.29563044       0.29567627       0.29584279
       0.29677208       0.29698358       0.30032069       0.30036836
       0.30041122       0.30047692       0.30050478       0.30051244
       0.30059229       0.30080909       0.30083328       0.30102488
       0.30133904       0.30146586       0.30197539       0.30198624
       0.30250276       0.30300189       0.30464268       0.30469133
       0.30487721       0.30506643       0.30522880       0.30540885
       0.30552208       0.30614543       0.30935064       0.30970902
       0.30991569       0.31025760       0.31218499       0.31242757
       0.31246301       0.31250719       0.31254387       0.31289470
       0.31309878       0.31340178       0.31433856       0.31613690
       0.31635085       0.31674447       0.31685545       0.32042305
       0.32056091       0.32058947       0.32070255       0.32103501
       0.32115552       0.32132309       0.32148199       0.32568513
       0.32585553       0.32626922       0.32656683       0.32742144
       0.32747653       0.33160230       0.33187527       0.34063333
 Fermi Energy [eV] :    9.269104
  
  Lowest eigenvalues of the unoccupied subspace spin            1
 ---------------------------------------------

  
  Lowest eigenvalues of the unoccupied subspace spin            2
 ---------------------------------------------


 ENERGY| Total FORCE_EVAL ( QS ) energy (a.u.):            -8111.777024362898374


 -------------------------------------------------------------------------------
 -                                                                             -
 -                                DBCSR STATISTICS                             -
 -                                                                             -
 -------------------------------------------------------------------------------
 COUNTER                                    TOTAL       BLAS       SMM       ACC
 flops     4 x    25 x     4             25920000     100.0%      0.0%      0.0%
 flops    10 x    25 x     4             32400000     100.0%      0.0%      0.0%
 flops     4 x    25 x    10             32400000     100.0%      0.0%      0.0%
 flops    10 x    25 x    10             40500000     100.0%      0.0%      0.0%
 flops     4 x    24 x     4             49766400     100.0%      0.0%      0.0%
 flops    10 x    24 x     4             62208000     100.0%      0.0%      0.0%
 flops     4 x    24 x    10             62208000     100.0%      0.0%      0.0%
 flops    10 x    24 x    10             77760000     100.0%      0.0%      0.0%
 flops     4 x     4 x    56            321108480     100.0%      0.0%      0.0%
 flops     4 x     4 x    57            326842560     100.0%      0.0%      0.0%
 flops    10 x     4 x    56            399168000     100.0%      0.0%      0.0%
 flops     4 x    10 x    56            399168000     100.0%      0.0%      0.0%
 flops    10 x     4 x    57            406296000     100.0%      0.0%      0.0%
 flops     4 x    10 x    57            406296000     100.0%      0.0%      0.0%
 flops    10 x    10 x    56            504504000     100.0%      0.0%      0.0%
 flops    10 x    10 x    57            513513000     100.0%      0.0%      0.0%
 flops     4 x     4 x    32           2201886720     100.0%      0.0%      0.0%
 flops    10 x     4 x    32           2737152000     100.0%      0.0%      0.0%
 flops     4 x    10 x    32           2737152000     100.0%      0.0%      0.0%
 flops     4 x    32 x     4           3284582400     100.0%      0.0%      0.0%
 flops    10 x    10 x    32           3459456000     100.0%      0.0%      0.0%
 flops    10 x    32 x     4           4105728000     100.0%      0.0%      0.0%
 flops     4 x    32 x    10           4105728000     100.0%      0.0%      0.0%
 flops    10 x    32 x    10           5132160000     100.0%      0.0%      0.0%
 flops     4 x     4 x    64           9541509120     100.0%      0.0%      0.0%
 flops    10 x     4 x    64          11860992000     100.0%      0.0%      0.0%
 flops     4 x    10 x    64          11860992000     100.0%      0.0%      0.0%
 flops    10 x    10 x    64          14990976000     100.0%      0.0%      0.0%
 flops inhomo. stacks                           0       0.0%      0.0%      0.0%
 flops total                        79.678373E+09     100.0%      0.0%      0.0%
 flops max/rank                      2.149528E+09     100.0%      0.0%      0.0%
 matmuls inhomo. stacks                         0       0.0%      0.0%      0.0%
 matmuls total                           23533200     100.0%      0.0%      0.0%
 number of processed stacks                 83360     100.0%      0.0%      0.0%
 average stack size                                   282.3       0.0       0.0
 marketing flops                   141.780566E+09
 -------------------------------------------------------------------------------
 # multiplications                             25
 max memory usage/rank             414.883840E+06
 # max total images/rank                        5
 # max 3D layers                                1
 # MPI messages exchanged                   63000
 MPI messages size (bytes):
  total size                         6.490199E+09
  min size                          40.960000E+03
  max size                         280.704000E+03
  average size                     103.019031E+03
 MPI breakdown and total messages size (bytes):
             size <=      128                   0                        0
       128 < size <=     8192                   0                        0
      8192 < size <=    32768                   0                        0
     32768 < size <=   131072               49752               3643367040
    131072 < size <=  4194304               13248               2846832480
   4194304 < size <= 16777216                   0                        0
  16777216 < size                               0                        0
 -------------------------------------------------------------------------------

 *** WARNING in dbcsr/mm/dbcsr_mm.F:268 :: Using a non-square number of ***
 *** MPI ranks might lead to poor performance.                          ***
 *** Used ranks: 40                                                     ***
 *** Suggested: 36 81                                                   ***

 -------------------------------------------------------------------------------

 MEMORY| Estimated peak process memory [MiB]                                 400

 -------------------------------------------------------------------------------
 ----                             MULTIGRID INFO                            ----
 -------------------------------------------------------------------------------
 count for grid        1:         884838          cutoff [a.u.]          325.00
 count for grid        2:         501782          cutoff [a.u.]          108.33
 count for grid        3:         797636          cutoff [a.u.]           36.11
 count for grid        4:        1053888          cutoff [a.u.]           12.04
 count for grid        5:         551056          cutoff [a.u.]            4.01
 count for grid        6:              0          cutoff [a.u.]            1.34
 count for grid        7:              0          cutoff [a.u.]            0.45
 count for grid        8:              0          cutoff [a.u.]            0.15
 count for grid        9:              0          cutoff [a.u.]            0.05
 count for grid       10:              0          cutoff [a.u.]            0.02
 total gridlevel count  :        3789200

 -------------------------------------------------------------------------------
 -                                                                             -
 -                         MESSAGE PASSING PERFORMANCE                         -
 -                                                                             -
 -------------------------------------------------------------------------------

 ROUTINE             CALLS      AVE VOLUME [Bytes]
 MP_Group               35
 MP_Bcast             2303                 168179.
 MP_Allreduce          615                   1545.
 MP_Sync               366
 MP_Alltoall          1283                2761435.
 MP_ISendRecv        13104                  15276.
 MP_Wait             20228
 MP_comm_split          20
 MP_ISend             8114                 129023.
 MP_IRecv             8088                 128626.
 MP_Recv                66                 414720.
 MP_Memory            3858
 -------------------------------------------------------------------------------


 -------------------------------------------------------------------------------
 -                                                                             -
 -                           R E F E R E N C E S                               -
 -                                                                             -
 -------------------------------------------------------------------------------
 
 CP2K version 6.1, the CP2K developers group (2018).
 CP2K is freely available from https://www.cp2k.org/ .

 Schuett, Ole; Messmer, Peter; Hutter, Juerg; VandeVondele, Joost. 
 Electronic Structure Calculations on Graphics Processing Units, John Wiley & Sons, Ltd, 173-190 (2016). 
 GPU-Accelerated Sparse Matrix-Matrix Multiplication for Linear Scaling Density Functional Theory.
 http://dx.doi.org/10.1002/9781118670712.ch8


 Borstnik, U; VandeVondele, J; Weber, V; Hutter, J. 
 PARALLEL COMPUTING, 40 (5-6), 47-58 (2014). 
 Sparse matrix multiplication: The distributed block-compressed sparse
 row library.
 http://dx.doi.org/10.1016/j.parco.2014.03.012


 Hutter, J; Iannuzzi, M; Schiffmann, F; VandeVondele, J. 
 WILEY INTERDISCIPLINARY REVIEWS-COMPUTATIONAL MOLECULAR SCIENCE, 4 (1), 15-25 (2014). 
 CP2K: atomistic simulations of condensed matter systems.
 http://dx.doi.org/10.1002/wcms.1159


 VandeVondele, J; Hutter, J. 
 JOURNAL OF CHEMICAL PHYSICS, 127 (11), 114105 (2007). 
 Gaussian basis sets for accurate calculations on molecular systems in
 gas and condensed phases.
 http://dx.doi.org/10.1063/1.2770708


 Krack, M. 
 THEORETICAL CHEMISTRY ACCOUNTS, 114 (1-3), 145-152 (2005). 
 Pseudopotentials for H to Kr optimized for gradient-corrected
 exchange-correlation functionals.
 http://dx.doi.org/10.1007/s00214-005-0655-y


 VandeVondele, J; Krack, M; Mohamed, F; Parrinello, M; Chassaing, T;
 Hutter, J. COMPUTER PHYSICS COMMUNICATIONS, 167 (2), 103-128 (2005). 
 QUICKSTEP: Fast and accurate density functional calculations using a
 mixed Gaussian and plane waves approach.
 http://dx.doi.org/10.1016/j.cpc.2004.12.014


 Frigo, M; Johnson, SG. 
 PROCEEDINGS OF THE IEEE, 93 (2), 216-231 (2005). 
 The design and implementation of FFTW3.
 http://dx.doi.org/10.1109/JPROC.2004.840301


 Hartwigsen, C; Goedecker, S; Hutter, J. 
 PHYSICAL REVIEW B, 58 (7), 3641-3662 (1998). 
 Relativistic separable dual-space Gaussian pseudopotentials from H to Rn.
 http://dx.doi.org/10.1103/PhysRevB.58.3641


 Dudarev, SL; Botton, GA; Savrasov, SY; Humphreys, CJ; Sutton, AP. 
 PHYSICAL REVIEW B, 57 (3), 1505-1509 (1998). 
 Electron-energy-loss spectra and the structural stability of
 nickel oxide: An LSDA+U study.
 http://dx.doi.org/10.1103/PhysRevB.57.1505


 Lippert, G; Hutter, J; Parrinello, M. 
 MOLECULAR PHYSICS, 92 (3), 477-487 (1997). 
 A hybrid Gaussian and plane wave density functional scheme.
 http://dx.doi.org/10.1080/002689797170220


 Dudarev, SL; Manh, DN; Sutton, AP. 
 PHILOSOPHICAL MAGAZINE B, 75 (5), 613-628 (1997). 
 Effect of Mott-Hubbard correlations on the electronic
 structure and structural stability of uranium dioxide.
 http://dx.doi.org/10.1080/13642819708202343


 Perdew, JP; Burke, K; Ernzerhof, M. 
 PHYSICAL REVIEW LETTERS, 77 (18), 3865-3868 (1996). 
 Generalized gradient approximation made simple.
 http://dx.doi.org/10.1103/PhysRevLett.77.3865


 Goedecker, S; Teter, M; Hutter, J. 
 PHYSICAL REVIEW B, 54 (3), 1703-1710 (1996). 
 Separable dual-space Gaussian pseudopotentials.
 http://dx.doi.org/10.1103/PhysRevB.54.1703


 -------------------------------------------------------------------------------
 -                                                                             -
 -                                T I M I N G                                  -
 -                                                                             -
 -------------------------------------------------------------------------------
 SUBROUTINE                       CALLS  ASD         SELF TIME        TOTAL TIME
                                MAXIMUM       AVERAGE  MAXIMUM  AVERAGE  MAXIMUM
 CP2K                                 1  1.0    0.047    0.053  195.572  195.573
 qs_energies                          1  2.0    0.000    0.000  195.149  195.151
 scf_env_do_scf                       1  3.0    0.000    0.000  169.414  169.657
 scf_env_do_scf_inner_loop           10  4.0    0.001    0.001  169.414  169.656
 qs_ks_update_qs_env                 10  5.0    0.001    0.001   86.500   86.533
 rebuild_ks_matrix                   10  6.0    0.000    0.000   86.491   86.523
 qs_ks_build_kohn_sham_matrix        10  7.0    0.090    0.122   86.491   86.523
 qs_rho_update_rho                   11  5.0    0.000    0.000   76.740   76.744
 calculate_rho_elec                  22  6.0   52.950   70.406   76.740   76.744
 sum_up_and_integrate                10  8.0    0.033    0.048   68.992   68.996
 integrate_v_rspace                  20  9.0   48.835   64.212   68.959   68.969
 rs_pw_transfer                     424  9.4    0.005    0.007   26.849   48.413
 mp_waitany                        4040 11.3   24.078   46.287   24.078   46.287
 rs_pw_transfer_RS2PW_330            24  8.9    0.422    0.581   23.329   44.903
 density_rs2pw                       22  7.0    0.002    0.003   22.990   39.715
 rs_distribute_matrix                42  8.4    0.131    0.183   15.904   31.050
 mp_alltoall_d11v                   262  9.2   15.838   31.045   15.838   31.045
 pw_transfer                        631  9.5    0.038    0.056   20.463   21.394
 fft_wrap_pw1pw2                    611 10.5    0.006    0.009   20.355   21.315
 fft_wrap_pw1pw2_330                233 11.6    0.963    1.429   19.137   19.918
 fft3d_ps                           611 12.5    7.192    9.517   17.148   19.177
 qs_energies_init_hamiltonians        1  3.0    0.000    0.000   17.210   17.210
 build_core_hamiltonian_matrix        1  4.0    0.000    0.000   11.314   16.534
 qs_vxc_create                       10  8.0    0.000    0.001   16.108   16.204
 xc_vxc_pw_create                    10  9.0    0.191    0.277   16.107   16.204
 mp_alltoall_z22v                   611 14.5    8.633   12.905    8.633   12.905
 build_core_ppnl                      1  5.0    7.382   11.052    7.382   11.052
 qs_env_update_s_mstruct              1  4.0    0.000    0.000    5.837   10.642
 calculate_rho_core                   1  5.0    0.004    0.006    5.349   10.178
 qs_scf_new_mos                      10  5.0    0.000    0.001    9.754    9.822
 eigensolver                         20  6.0    0.001    0.002    8.953    8.966
 xc_rho_set_and_dset_create          10 10.0    0.097    0.146    8.104    8.946
 init_scf_run                         1  3.0    0.000    0.000    7.730    7.733
 scf_env_initial_rho_setup            1  4.0    0.000    0.000    7.697    7.698
 yz_to_x                            169 13.1    0.425    0.618    5.012    7.252
 cp_fm_syevd                         20  7.0    0.000    0.000    6.781    6.788
 cp_fm_redistribute_end              20  8.0    2.044    6.724    2.053    6.732
 cp_fm_syevd_base                    20  8.0    4.663    6.669    4.663    6.669
 x_to_yz                            190 13.9    0.849    1.283    4.893    6.384
 build_core_ppl                       1  5.0    3.669    5.139    3.669    5.139
 potential_pw2rs                     20 10.0    0.004    0.006    4.462    4.480
 -------------------------------------------------------------------------------

 The number of warnings for this run is : 1
 
 -------------------------------------------------------------------------------
  **** **** ******  **  PROGRAM ENDED AT                 2019-08-02 13:27:52.228
 ***** ** ***  *** **   PROGRAM RAN ON            cpn-p28-37.cbls.ccr.buffalo.ed
 **    ****   ******    PROGRAM RAN BY                                  pavankum
 ***** **    ** ** **   PROGRAM PROCESS ID                                 40700
  **** **  *******  **  PROGRAM STOPPED IN /projects/academic/mdupuis2/pavan/VAB
                                           _calculation/results_for_paper/7.TiO2
                                           _pbe_plus_U10/point_0.2
