      77
 i =       15, E =     -1322.6565791062
 Fe        18.3305454379        0.0000075913        0.0000153457
 Fe        15.2703744616       -0.0000059472        0.0001851494
 Fe        12.1941457848       -0.0000290449       -0.0003626455
 Fe         9.1677952444        0.0000044544        0.0000047074
 Fe         6.1413319694        0.0000338322        0.0003690141
 Fe         3.0649797422        0.0000047873       -0.0001358478
 Fe         0.0047213540       -0.0000093280        0.0000430674
  O        18.3319124490       -0.0000064200        2.1430214039
  O        18.3317851936        0.0000152555       -2.1429899728
  O        19.8600945295       -1.2610002753       -0.0000188420
  O        19.8601047181        1.2609960991       -0.0000156448
  O        15.2894374670       -0.0002984049        2.1511638758
  O        15.2893739055        0.0003234141       -2.1508010733
  O        16.8159046090       -1.2611696496       -0.0000153015
  O        16.8158979429        1.2611862131        0.0002592555
  O        12.2638747291        0.0012455818        2.1718182324
  O        12.2643901301       -0.0013214237       -2.1726084124
  O        13.7820211986       -1.2580731022       -0.0002759906
  O        13.7820265411        1.2580140573        0.0003432989
  O         9.1682838284       -0.0028794513        2.2934693930
  O         9.1676651736        0.0028912522       -2.2934558612
  O        10.8189059286       -1.3251045090        0.0045129588
  O        10.8189239648        1.3250248634       -0.0056207836
  O         6.0705667490        0.0012754369        2.1726348991
  O         6.0710804144       -0.0011953992       -2.1718430557
  O         7.5166293075       -1.3249652763        0.0055713554
  O         7.5166411406        1.3250516566       -0.0044844384
  O         3.0449880924       -0.0003658957        2.1508153019
  O         3.0449210535        0.0003428090       -2.1511177538
  O         4.5533650674       -1.2579729954       -0.0004196087
  O         4.5533629539        1.2580364027        0.0002889666
  O         0.0023330658       -0.0000273309        2.1430048812
  O         0.0022052852        0.0000116237       -2.1429610161
  O         1.5193569839       -1.2611720124       -0.0003161821
  O         1.5193485335        1.2611521879        0.0000069612
  H        18.2830885269       -0.7943439628       -2.6888709325
  H        18.2827998209        0.7943847240       -2.6888304410
  H        18.2830740807       -0.7943903991        2.6888519712
  H        18.2832888163        0.7943577951        2.6888996008
  H        19.8600886349       -2.2212230040        0.0000152712
  H        19.8601124129        2.2212185927       -0.0000092444
  H        15.1548908254       -0.7934692688       -2.6825829550
  H        15.1533556366        0.7938930517       -2.6825570086
  H        15.1536562924       -0.7938584774        2.6830038050
  H        15.1551234309        0.7934784095        2.6830218315
  H        16.8007869995       -2.2211218392       -0.0000064430
  H        16.8007885704        2.2211410061        0.0001008784
  H        12.0972870928       -0.7966472670       -2.6911186837
  H        12.0881545283        0.7940064472       -2.6880870785
  H        12.0874358181       -0.7940165439        2.6872985145
  H        12.0964786300        0.7966148953        2.6901485166
  H        13.7392786532       -2.2162910676        0.0014338818
  H        13.7391591125        2.2162236194       -0.0007874273
  H         9.1670186318       -0.7939520453       -2.8344540589
  H         9.1669805583        0.7976664914       -2.8374718476
  H         9.1668683889       -0.7976636351        2.8374705423
  H         9.1667378537        0.7939589678        2.8344739927
  H        10.7822611675       -2.2806435736       -0.0034298493
  H        10.7823956967        2.2805622169        0.0015043443
  H         6.2367569638       -0.7965843673       -2.6906968584
  H         6.2458284117        0.7941117244       -2.6878422461
  H         6.2450929072       -0.7941271200        2.6885882759
  H         6.2359835510        0.7966175143        2.6916657034
  H         7.5532396904       -2.2805040146       -0.0015182724
  H         7.5533495832        2.2805909279        0.0034415545
  H         3.1777187076       -0.7934096547       -2.6833887480
  H         3.1789794764        0.7939214106       -2.6833660413
  H         3.1792425204       -0.7940163079        2.6828972551
  H         3.1779963986        0.7934543561        2.6829224649
  H         4.5962636910       -2.2161797839        0.0007334306
  H         4.5961341592        2.2162518109       -0.0013840012
  H         0.0493230874       -0.7943222221       -2.6890166025
  H         0.0492136727        0.7943835067       -2.6889719554
  H         0.0494628358       -0.7944507412        2.6889317954
  H         0.0495487179        0.7943698293        2.6889621691
  H         1.5344824181       -2.2211244798       -0.0001268422
  H         1.5344787991        2.2211021483        0.0000407619
