      77
 i =        1, E =     -1323.4709245638
 Fe        18.3347658941       -0.0000008822        0.0000012486
 Fe        15.2787113762       -0.0000004378        0.0000002770
 Fe        12.2026621272        0.0000004556       -0.0000020346
 Fe         9.1696162913        0.0000008123       -0.0000034260
 Fe         6.1359434143        0.0000002863       -0.0000001311
 Fe         3.0594397946       -0.0000002068        0.0000014278
 Fe         0.0031855039       -0.0000007960        0.0000015417
  O        18.3284434255       -0.0000019453        2.1321145259
  O        18.3284437669        0.0000006586       -2.1321122296
  O        19.8613177653       -1.2627054211        0.0000070240
  O        19.8613181673        1.2627036301       -0.0000048798
  O        15.2814844559       -0.0000016339        2.1429962903
  O        15.2814859329        0.0000008379       -2.1429959968
  O        16.8182310522       -1.2624375749       -0.0000009156
  O        16.8182319586        1.2624362369        0.0000021549
  O        12.2628252361        0.0000038618        2.1674527980
  O        12.2628272116       -0.0000015800       -2.1674572273
  O        13.7852293109       -1.2582951177       -0.0000015975
  O        13.7852304193        1.2582952487       -0.0000007090
  O         9.1714692284       -0.0000039261        2.2838637109
  O         9.1714673012        0.0000061653       -2.2838706407
  O        10.8223050616       -1.3241601971       -0.0000010838
  O        10.8223055986        1.3241616413       -0.0000057179
  O         6.0740988576       -0.0000251325        2.1674764572
  O         6.0740969423        0.0000251660       -2.1674770991
  O         7.5165789034       -1.3238837059       -0.0000097164
  O         7.5165785281        1.3238847256        0.0000062215
  O         3.0536116127       -0.0000437497        2.1426739232
  O         3.0536110840        0.0000433573       -2.1426711855
  O         4.5530759633       -1.2581804895       -0.0000321310
  O         4.5530756386        1.2581805193        0.0000332158
  O         0.0060639955       -0.0000067243        2.1319564730
  O         0.0060641820        0.0000045742       -2.1319535033
  O         1.5195869940       -1.2624083139       -0.0000120441
  O         1.5195867266        1.2624071948        0.0000145350
  H        18.2595200199       -0.7958939540       -2.6715205675
  H        18.2595165865        0.7958966836       -2.6715179573
  H        18.2595297063       -0.7958986719        2.6715209275
  H        18.2595058915        0.7958924203        2.6715214870
  H        19.8612445264       -2.2220860410       -0.0000029091
  H        19.8612446506        2.2220842503        0.0000051136
  H        15.1006927528       -0.7943888390       -2.6583790471
  H        15.1006924097        0.7943911162       -2.6583779501
  H        15.1007037815       -0.7943944826        2.6583788341
  H        15.1006786401        0.7943861771        2.6583777614
  H        16.8040008111       -2.2216069562       -0.0000025210
  H        16.8040017518        2.2216056218        0.0000043233
  H        12.0431447359       -0.7962986801       -2.6631511717
  H        12.0431428603        0.7962943000       -2.6631521785
  H        12.0431461500       -0.7962933592        2.6631479553
  H        12.0431357549        0.7962999685        2.6631451961
  H        13.7434796712       -2.2159078053       -0.0000008692
  H        13.7434812353        2.2159079604       -0.0000007851
  H         9.1654546525       -0.7982775589       -2.8212312563
  H         9.1654721540        0.7982910435       -2.8212297011
  H         9.1654729379       -0.7982890035        2.8212224268
  H         9.1654523706        0.7982798236        2.8212241947
  H        10.7865468438       -2.2792357135       -0.0000030158
  H        10.7865474819        2.2792371642       -0.0000036994
  H         6.2855698350       -0.7965364082       -2.6662177200
  H         6.2855834464        0.7965958132       -2.6661976491
  H         6.2855837899       -0.7965961597        2.6661970525
  H         6.2855691797        0.7965366504        2.6662178113
  H         7.5523518697       -2.2789624742       -0.0000162983
  H         7.5523511170        2.2789635115        0.0000132398
  H         3.2276089742       -0.7945221019       -2.6600327984
  H         3.2274826388        0.7946534272       -2.6600073483
  H         3.2274841267       -0.7946535767        2.6600101097
  H         3.2276058869        0.7945227159        2.6600352310
  H         4.5946726680       -2.2157971739       -0.0000405987
  H         4.5946719465        2.2157972221        0.0000417695
  H         0.0677369128       -0.7959624699       -2.6721003485
  H         0.0676316963        0.7959804749       -2.6720989363
  H         0.0676383677       -0.7959821968        2.6721017384
  H         0.0677287185        0.7959613690        2.6721027122
  H         1.5336460683       -2.2215764526       -0.0000261576
  H         1.5336453058        2.2215753386        0.0000289097
      77
 i =        2, E =     -1323.4709245535
 Fe        18.3347658941       -0.0000008822        0.0000012486
 Fe        15.2787113762       -0.0000004378        0.0000002770
 Fe        12.2026621272        0.0000004556       -0.0000020346
 Fe         9.1696162913        0.0000008123       -0.0000034260
 Fe         6.1359434143        0.0000002863       -0.0000001311
 Fe         3.0594397946       -0.0000002068        0.0000014278
 Fe         0.0031855039       -0.0000007960        0.0000015417
  O        18.3284434255       -0.0000019453        2.1321145259
  O        18.3284437669        0.0000006586       -2.1321122296
  O        19.8613177653       -1.2627054211        0.0000070240
  O        19.8613181673        1.2627036301       -0.0000048798
  O        15.2814844559       -0.0000016339        2.1429962903
  O        15.2814859329        0.0000008379       -2.1429959968
  O        16.8182310522       -1.2624375749       -0.0000009156
  O        16.8182319586        1.2624362369        0.0000021549
  O        12.2628252361        0.0000038618        2.1674527980
  O        12.2628272116       -0.0000015800       -2.1674572273
  O        13.7852293109       -1.2582951177       -0.0000015975
  O        13.7852304193        1.2582952487       -0.0000007090
  O         9.1714692284       -0.0000039261        2.2838637109
  O         9.1714673012        0.0000061653       -2.2838706407
  O        10.8223050616       -1.3241601971       -0.0000010838
  O        10.8223055986        1.3241616413       -0.0000057179
  O         6.0740988576       -0.0000251325        2.1674764572
  O         6.0740969423        0.0000251660       -2.1674770991
  O         7.5165789034       -1.3238837059       -0.0000097164
  O         7.5165785281        1.3238847256        0.0000062215
  O         3.0536116127       -0.0000437497        2.1426739232
  O         3.0536110840        0.0000433573       -2.1426711855
  O         4.5530759633       -1.2581804895       -0.0000321310
  O         4.5530756386        1.2581805193        0.0000332158
  O         0.0060639955       -0.0000067243        2.1319564730
  O         0.0060641820        0.0000045742       -2.1319535033
  O         1.5195869940       -1.2624083139       -0.0000120441
  O         1.5195867266        1.2624071948        0.0000145350
  H        18.2595200199       -0.7958939540       -2.6715205675
  H        18.2595165865        0.7958966836       -2.6715179573
  H        18.2595297063       -0.7958986719        2.6715209275
  H        18.2595058915        0.7958924203        2.6715214870
  H        19.8612445264       -2.2220860410       -0.0000029091
  H        19.8612446506        2.2220842503        0.0000051136
  H        15.1006927528       -0.7943888390       -2.6583790471
  H        15.1006924097        0.7943911162       -2.6583779501
  H        15.1007037815       -0.7943944826        2.6583788341
  H        15.1006786401        0.7943861771        2.6583777614
  H        16.8040008111       -2.2216069562       -0.0000025210
  H        16.8040017518        2.2216056218        0.0000043233
  H        12.0431447359       -0.7962986801       -2.6631511717
  H        12.0431428603        0.7962943000       -2.6631521785
  H        12.0431461500       -0.7962933592        2.6631479553
  H        12.0431357549        0.7962999685        2.6631451961
  H        13.7434796712       -2.2159078053       -0.0000008692
  H        13.7434812353        2.2159079604       -0.0000007851
  H         9.1654546525       -0.7982775589       -2.8212312563
  H         9.1654721540        0.7982910435       -2.8212297011
  H         9.1654729379       -0.7982890035        2.8212224268
  H         9.1654523706        0.7982798236        2.8212241947
  H        10.7865468438       -2.2792357135       -0.0000030158
  H        10.7865474819        2.2792371642       -0.0000036994
  H         6.2855698350       -0.7965364082       -2.6662177200
  H         6.2855834464        0.7965958132       -2.6661976491
  H         6.2855837899       -0.7965961597        2.6661970525
  H         6.2855691797        0.7965366504        2.6662178113
  H         7.5523518697       -2.2789624742       -0.0000162983
  H         7.5523511170        2.2789635115        0.0000132398
  H         3.2276089742       -0.7945221019       -2.6600327984
  H         3.2274826388        0.7946534272       -2.6600073483
  H         3.2274841267       -0.7946535767        2.6600101097
  H         3.2276058869        0.7945227159        2.6600352310
  H         4.5946726680       -2.2157971739       -0.0000405987
  H         4.5946719465        2.2157972221        0.0000417695
  H         0.0677369128       -0.7959624699       -2.6721003485
  H         0.0676316963        0.7959804749       -2.6720989363
  H         0.0676383677       -0.7959821968        2.6721017384
  H         0.0677287185        0.7959613690        2.6721027122
  H         1.5336460683       -2.2215764526       -0.0000261576
  H         1.5336453058        2.2215753386        0.0000289097
      77
 i =        1, E =     -1322.6559410213
 Fe        18.3347733090       -0.0000021958        0.0000017031
 Fe        15.2786907267       -0.0000005976        0.0000076380
 Fe        12.2027988160        0.0000093673        0.0002273765
 Fe         9.1696152445        0.0000043021       -0.0000007221
 Fe         6.1357968533       -0.0000157577       -0.0002247827
 Fe         3.0594540171        0.0000003323       -0.0000063849
 Fe         0.0031780006       -0.0000003562       -0.0000025741
  O        18.3262458587       -0.0000019457        2.1306978575
  O        18.3262428705        0.0000002126       -2.1306955258
  O        19.8613136942       -1.2630641252        0.0000142496
  O        19.8613130654        1.2630622251       -0.0000012332
  O        15.2761290851       -0.0000018812        2.1401433347
  O        15.2761261892        0.0000011531       -2.1401406305
  O        16.8180127549       -1.2627501568       -0.0000044539
  O        16.8180129457        1.2627486703       -0.0000026302
  O        12.2567573914        0.0000093697        2.1637258313
  O        12.2566155629       -0.0000032410       -2.1635708987
  O        13.7849802973       -1.2585369070       -0.0000334796
  O        13.7849805222        1.2585393686       -0.0000123170
  O         9.1709679501       -0.0005195391        2.2817642126
  O         9.1716115871        0.0005245046       -2.2817747761
  O        10.8223276480       -1.3239074801        0.0010638393
  O        10.8222491176        1.3239133501       -0.0014593685
  O         6.0801687162       -0.0000250454        2.1637490103
  O         6.0800356577        0.0000189517       -2.1639024278
  O         7.5166398744       -1.3236243110        0.0014444242
  O         7.5165648467        1.3236253574       -0.0010579809
  O         3.0587987940       -0.0000449113        2.1399375819
  O         3.0587807748        0.0000435503       -2.1399401870
  O         4.5533175205       -1.2584260998       -0.0000195592
  O         4.5533205194        1.2584209912        0.0000638115
  O         0.0080367466       -0.0000071441        2.1305864386
  O         0.0080379543        0.0000043917       -2.1305858243
  O         1.5197972552       -1.2627223524       -0.0000089464
  O         1.5197960267        1.2627225561        0.0000182767
  H        18.2606626286       -0.7929678949       -2.6762583783
  H        18.2606574918        0.7929714425       -2.6762530610
  H        18.2606682797       -0.7929729785        2.6762567303
  H        18.2606465492        0.7929666464        2.6762578320
  H        19.8612474008       -2.2232848095       -0.0000067479
  H        19.8612456551        2.2232827332        0.0000031430
  H        15.1034700976       -0.7917715707       -2.6636243834
  H        15.1034628510        0.7917725996       -2.6636228230
  H        15.1034772430       -0.7917754117        2.6636254165
  H        15.1034475993        0.7917689474        2.6636210611
  H        16.8042647704       -2.2227507880       -0.0000001345
  H        16.8042672277        2.2227498963        0.0000076468
  H        12.0463308835       -0.7937272189       -2.6686332456
  H        12.0463740587        0.7937116448       -2.6686615101
  H        12.0463145676       -0.7937525905        2.6686324120
  H        12.0462570503        0.7937716607        2.6686108496
  H        13.7439827511       -2.2169391991        0.0000045197
  H        13.7439838200        2.2169404477        0.0000071617
  H         9.1654950224       -0.7944282720       -2.8253268172
  H         9.1654893663        0.7946612686       -2.8263651028
  H         9.1656276034       -0.7946608008        2.8263578555
  H         9.1655934373        0.7944303225        2.8253277453
  H        10.7868081774       -2.2796995087       -0.0007540948
  H        10.7868189124        2.2797080408        0.0003719350
  H         6.2825149087       -0.7939669916       -2.6716320365
  H         6.2824882931        0.7940136372       -2.6716276933
  H         6.2824311148       -0.7939696464        2.6716538147
  H         6.2824583601        0.7939225681        2.6716423340
  H         7.5520691421       -2.2794241960       -0.0003979099
  H         7.5520884367        2.2794211414        0.0007567456
  H         3.2249262260       -0.7918732539       -2.6652360885
  H         3.2248085889        0.7920028825       -2.6652089366
  H         3.2247959809       -0.7920043369        2.6652161701
  H         3.2249178988        0.7918757137        2.6652366998
  H         4.5941700015       -2.2168306175       -0.0000501390
  H         4.5941673760        2.2168269858        0.0000376962
  H         0.0667181454       -0.7930249929       -2.6768178600
  H         0.0666067262        0.7930427354       -2.6768165654
  H         0.0666133475       -0.7930428778        2.6768201644
  H         0.0667111541        0.7930226506        2.6768195384
  H         1.5333871190       -2.2227212351       -0.0000285404
  H         1.5333861431        2.2227211347        0.0000285780
      77
 i =        2, E =     -1322.6561752883
 Fe        18.3342514137       -0.0000024310        0.0000001351
 Fe        15.2774697586        0.0000011604       -0.0000222839
 Fe        12.2015155664        0.0000073555        0.0002791482
 Fe         9.1695772069        0.0000041784       -0.0000023514
 Fe         6.1370055987       -0.0000110720       -0.0002771088
 Fe         3.0606144201       -0.0000029398        0.0000232992
 Fe         0.0036289239        0.0000000086        0.0000026950
  O        18.3235338586       -0.0000018743        2.1340236626
  O        18.3235387391       -0.0000000990       -2.1340224721
  O        19.8612815888       -1.2627323731        0.0000117509
  O        19.8612807550        1.2627301214       -0.0000033778
  O        15.2699802659       -0.0000020944        2.1421631092
  O        15.2699954708        0.0000028637       -2.1421845362
  O        16.8174915989       -1.2626344066        0.0000022650
  O        16.8174916612        1.2626330923        0.0000055403
  O        12.2502514854        0.0001188156        2.1650010120
  O        12.2501372250       -0.0001017890       -2.1648619435
  O        13.7842534630       -1.2588252755       -0.0000462842
  O        13.7842421251        1.2588323827        0.0001276645
  O         9.1703777674       -0.0009890089        2.2860122620
  O         9.1715415320        0.0009947468       -2.2860224171
  O        10.8219246862       -1.3244082049        0.0020718229
  O        10.8217904774        1.3244107242       -0.0026668526
  O         6.0864418448        0.0000726760        2.1651869847
  O         6.0863300246       -0.0000912828       -2.1653250607
  O         7.5170258426       -1.3241062011        0.0026475226
  O         7.5169024396        1.3241103498       -0.0020630869
  O         3.0647450801       -0.0000465412        2.1420945126
  O         3.0647483917        0.0000443003       -2.1420746627
  O         4.5539938877       -1.2587100604       -0.0001609984
  O         4.5539807391        1.2586996256        0.0000763343
  O         0.0104628867       -0.0000070102        2.1339651506
  O         0.0104654602        0.0000042974       -2.1339598699
  O         1.5202576279       -1.2625925478       -0.0000186162
  O         1.5202572284        1.2625925230        0.0000120827
  H        18.2622099185       -0.7938693288       -2.6793330921
  H        18.2622019947        0.7938730754       -2.6793264277
  H        18.2622160256       -0.7938744307        2.6793308677
  H        18.2621964558        0.7938681358        2.6793323971
  H        19.8612381586       -2.2229486188       -0.0000064671
  H        19.8612360291        2.2229461727        0.0000028359
  H        15.1073649472       -0.7930172277       -2.6674962543
  H        15.1073518075        0.7930208029       -2.6674948680
  H        15.1073767013       -0.7930124576        2.6675010794
  H        15.1073477626        0.7930040972        2.6674982131
  H        16.8042877035       -2.2226203064       -0.0000008112
  H        16.8042909398        2.2226191683        0.0000050146
  H        12.0509652240       -0.7950397472       -2.6728400684
  H        12.0509833847        0.7949622312       -2.6726837785
  H        12.0508998471       -0.7949481951        2.6727212985
  H        12.0508656956        0.7950352001        2.6729055724
  H        13.7441948568       -2.2171426727        0.0000229489
  H        13.7442035472        2.2171496235       -0.0000391345
  H         9.1656344927       -0.7960774576       -2.8267687819
  H         9.1656044289        0.7965605354       -2.8288013064
  H         9.1658004546       -0.7965611795        2.8287972531
  H         9.1657464288        0.7960804368        2.8267756857
  H        10.7869545341       -2.2799452858       -0.0015657390
  H        10.7869552932        2.2799551622        0.0006296504
  H         6.2780775516       -0.7952037116       -2.6757908019
  H         6.2780780389        0.7951825241       -2.6755783565
  H         6.2779958706       -0.7951953333        2.6755410532
  H         6.2779974421        0.7952110763        2.6757087276
  H         7.5518978202       -2.2796531989       -0.0006578221
  H         7.5519079589        2.2796487396        0.0015677784
  H         3.2211907054       -0.7930818692       -2.6690364866
  H         3.2210775635        0.7932134430       -2.6690062012
  H         3.2210699882       -0.7932232327        2.6690121304
  H         3.2211924319        0.7930929249        2.6690315540
  H         4.5939181256       -2.2170327456       -0.0000044385
  H         4.5939263457        2.2170221773        0.0000196956
  H         0.0654089460       -0.7939096900       -2.6798612196
  H         0.0652910413        0.7939276546       -2.6798595499
  H         0.0652989221       -0.7939313622        2.6798617391
  H         0.0654034237        0.7939111098        2.6798610012
  H         1.5333453570       -2.2225769816       -0.0000253388
  H         1.5333443021        2.2225772503        0.0000302804
      77
 i =        3, E =     -1322.6563484409
 Fe        18.3323973122       -0.0000018534        0.0000065079
 Fe        15.2733070172        0.0000026618       -0.0000180647
 Fe        12.1971070836       -0.0000058481        0.0002734597
 Fe         9.1694506728        0.0000043303        0.0000000889
 Fe         6.1412578383        0.0000047449       -0.0002791192
 Fe         3.0645906712       -0.0000043941        0.0000189692
 Fe         0.0052537322       -0.0000008396       -0.0000049127
  O        18.3205341848       -0.0000021085        2.1400011315
  O        18.3205391848        0.0000001721       -2.1399940052
  O        19.8611971337       -1.2608938492        0.0000076423
  O        19.8611969128        1.2608917155       -0.0000040620
  O        15.2639925281       -0.0000166051        2.1467414794
  O        15.2640342599        0.0000221171       -2.1467322631
  O        16.8161022970       -1.2614857846       -0.0000085944
  O        16.8161000583        1.2614846643       -0.0000106786
  O        12.2444566793        0.0004937726        2.1685248544
  O        12.2447796658       -0.0004551393       -2.1683923200
  O        13.7822627440       -1.2589584045       -0.0001348594
  O        13.7822330571        1.2589772319        0.0004149026
  O         9.1695561912       -0.0014462140        2.2902017083
  O         9.1712501701        0.0014517231       -2.2902117577
  O        10.8204039752       -1.3259542903        0.0029502918
  O        10.8202424624        1.3259313252       -0.0036582557
  O         6.0915179870        0.0004272855        2.1688323618
  O         6.0918306177       -0.0004650864       -2.1689756637
  O         7.5183734041       -1.3256298010        0.0036362951
  O         7.5182154840        1.3256548545       -0.0029381512
  O         3.0704905721       -0.0000652199        2.1467510260
  O         3.0705259020        0.0000595087       -2.1467591670
  O         4.5558244401       -1.2588127456       -0.0004508287
  O         4.5557919201        1.2587914593        0.0001668189
  O         0.0131066388       -0.0000065440        2.1399952324
  O         0.0131081949        0.0000048788       -2.1400004449
  O         1.5214789248       -1.2614031990       -0.0000022955
  O         1.5214757311        1.2613999100        0.0000265729
  H        18.2648764853       -0.7951060776       -2.6847096868
  H        18.2648622487        0.7951108061       -2.6847020664
  H        18.2648780789       -0.7951159548        2.6847057866
  H        18.2648634890        0.7951090171        2.6847078195
  H        19.8612003201       -2.2212682992       -0.0000048256
  H        19.8611974068        2.2212662863        0.0000011186
  H        15.1137469657       -0.7942319908       -2.6743416137
  H        15.1137247374        0.7942560144       -2.6743638438
  H        15.1137798667       -0.7942926426        2.6743403185
  H        15.1137513839        0.7942658986        2.6743217394
  H        16.8035209450       -2.2215649110        0.0000043034
  H        16.8035271769        2.2215631751        0.0000061501
  H        12.0579665102       -0.7958903537       -2.6803884954
  H        12.0577053265        0.7955861219       -2.6794584354
  H        12.0576977458       -0.7956523966        2.6795958264
  H        12.0579416669        0.7959801741        2.6805982107
  H        13.7433330035       -2.2172599060        0.0001181400
  H        13.7433533244        2.2172823639       -0.0001712463
  H         9.1659434941       -0.7953912357       -2.8310299767
  H         9.1658754388        0.7962417112       -2.8341081309
  H         9.1660278362       -0.7962407233        2.8341083379
  H         9.1659332803        0.7953915453        2.8310435587
  H        10.7865699334       -2.2812533993       -0.0027008896
  H        10.7865208068        2.2812449951        0.0006412597
  H         6.2713164271       -0.7961370007       -2.6832083607
  H         6.2716043084        0.7958767153       -2.6821826158
  H         6.2715951156       -0.7958072638        2.6820501005
  H         6.2713140988        0.7960502193        2.6829864203
  H         7.5522389990       -2.2809358847       -0.0006714034
  H         7.5521975277        2.2809471240        0.0026997662
  H         3.2151003360       -0.7943253729       -2.6757014831
  H         3.2149933646        0.7944753176       -2.6756849387
  H         3.2150077519       -0.7944411467        2.6757206919
  H         3.2151327848        0.7942917245        2.6757153479
  H         4.5946889105       -2.2171253660        0.0001267577
  H         4.5947084758        2.2171005710       -0.0000753784
  H         0.0632066541       -0.7951406157       -2.6851709242
  H         0.0630773724        0.7951600269       -2.6851695196
  H         0.0630846508       -0.7951523628        2.6851775561
  H         0.0632016564        0.7951317949        2.6851768608
  H         1.5340383276       -2.2214836770       -0.0000269893
  H         1.5340413769        2.2214810716        0.0000257266
      77
 i =        4, E =     -1322.6564083189
 Fe        18.3309195460       -0.0000027063       -0.0000034082
 Fe        15.2701055843        0.0000033878       -0.0000406950
 Fe        12.1941245207       -0.0000019620        0.0002379364
 Fe         9.1693211478        0.0000014539        0.0000012237
 Fe         6.1440770172        0.0000030096       -0.0002415175
 Fe         3.0676380759       -0.0000053986        0.0000412767
 Fe         0.0065325474        0.0000002220        0.0000099611
  O        18.3202948516       -0.0000022660        2.1426561037
  O        18.3203122623        0.0000008135       -2.1426607033
  O        19.8611227497       -1.2597756139        0.0000046754
  O        19.8611199800        1.2597731593       -0.0000062493
  O        15.2639977506       -0.0000493369        2.1495530117
  O        15.2640444334        0.0000577134       -2.1495828103
  O        16.8149400904       -1.2606876681        0.0000064486
  O        16.8149393778        1.2606889671       -0.0000119819
  O        12.2441125262        0.0007629319        2.1713032807
  O        12.2447012324       -0.0007193557       -2.1712265725
  O        13.7807039989       -1.2587887254       -0.0001028542
  O        13.7806819688        1.2588140287        0.0004720734
  O         9.1690741460       -0.0015169734        2.2942929293
  O         9.1710408223        0.0015223326       -2.2942972803
  O        10.8193415951       -1.3266443098        0.0028368593
  O        10.8191779524        1.3265938329       -0.0036721173
  O         6.0914125423        0.0006929147        2.1716069145
  O         6.0919879184       -0.0007332942       -2.1716926260
  O         7.5192366613       -1.3263135723        0.0036392295
  O         7.5190765454        1.3263645100       -0.0028236854
  O         3.0704195616       -0.0001005335        2.1496029859
  O         3.0704682818        0.0000928078       -2.1495723296
  O         4.5572090671       -1.2586520084       -0.0005099288
  O         4.5571837820        1.2586248431        0.0001338527
  O         0.0132582397       -0.0000072375        2.1426863663
  O         0.0132705790        0.0000052972       -2.1426707015
  O         1.5224990191       -1.2605992660       -0.0000016678
  O         1.5224971461        1.2605926897        0.0000122068
  H        18.2665515081       -0.7944535862       -2.6883752240
  H        18.2665317813        0.7944589008       -2.6883681655
  H        18.2665537040       -0.7944536937        2.6883778662
  H        18.2665434053        0.7944464358        2.6883803024
  H        19.8611423478       -2.2201765020       -0.0000028287
  H        19.8611408381        2.2201741309        0.0000005208
  H        15.1176958674       -0.7937638384       -2.6786390354
  H        15.1176854102        0.7938223949       -2.6787173736
  H        15.1177622430       -0.7938086432        2.6787275234
  H        15.1177187501        0.7937497849        2.6786583880
  H        16.8020954177       -2.2207780319        0.0000010708
  H        16.8021027401        2.2207790913        0.0000070253
  H        12.0622693331       -0.7959259085       -2.6848947391
  H        12.0615701945        0.7954018837       -2.6833069226
  H        12.0615872467       -0.7954061813        2.6835690539
  H        12.0622733834        0.7959622755        2.6852376273
  H        13.7414039525       -2.2171014334        0.0002017705
  H        13.7414185903        2.2171294349       -0.0002409519
  H         9.1661352706       -0.7967821181       -2.8330733822
  H         9.1660475301        0.7977829906       -2.8362582794
  H         9.1661391280       -0.7977853212        2.8362587317
  H         9.1660163392        0.7967855099        2.8330872313
  H        10.7855041311       -2.2820410956       -0.0032216387
  H        10.7854120122        2.2820074445        0.0003799102
  H         6.2672635228       -0.7960580574       -2.6876526857
  H         6.2679981709        0.7955717830       -2.6859674607
  H         6.2680121317       -0.7955684704        2.6857063323
  H         6.2672904817        0.7960302514        2.6872987540
  H         7.5532271321       -2.2817157360       -0.0004020092
  H         7.5531397211        2.2817507795        0.0032142380
  H         3.2113836276       -0.7937997767       -2.6799413165
  H         3.2112612224        0.7939820602       -2.6799763260
  H         3.2112965943       -0.7939951169        2.6799786827
  H         3.2114401620        0.7938115454        2.6799174701
  H         4.5965269018       -2.2169696794        0.0001960963
  H         4.5965405965        2.2169397192       -0.0001583841
  H         0.0618373042       -0.7944652048       -2.6888332239