 DBCSR| Multiplication driver                                               BLAS
 DBCSR| Multrec recursion limit                                              512
 DBCSR| Multiplication stack size                                           1000
 DBCSR| Maximum elements for images                                    UNLIMITED
 DBCSR| Multiplicative factor virtual images                                   1
 DBCSR| Multiplication size stacks                                             3
 DBCSR| Number of 3D layers                                               SINGLE
 DBCSR| Use MPI memory allocation                                              T
 DBCSR| Use RMA algorithm                                                      F
 DBCSR| Use Communication thread                                               T
 DBCSR| Communication thread load                                             87


  **** **** ******  **  PROGRAM STARTED AT               2019-08-01 16:23:51.458
 ***** ** ***  *** **   PROGRAM STARTED ON        cpn-p28-05.cbls.ccr.buffalo.ed
 **    ****   ******    PROGRAM STARTED BY                              pavankum
 ***** **    ** ** **   PROGRAM PROCESS ID                                  4168
  **** **  *******  **  PROGRAM STARTED IN /projects/academic/mdupuis2/pavan/VAB
                                           _calculation/results_for_paper/7.TiO2
                                           _pbe_plus_U10/gopt_state0

 CP2K| version string:                                          CP2K version 6.1
 CP2K| source code revision number:                                    svn:18464
 CP2K| cp2kflags: libint fftw3 libxc parallel mpi3 scalapack libderiv_max_am1=5 
 CP2K|            libint_max_am=6
 CP2K| is freely available from                            https://www.cp2k.org/
 CP2K| Program compiled at                          Fri Nov 30 14:17:09 EST 2018
 CP2K| Program compiled on                       srv-p22-12.cbls.ccr.buffalo.edu
 CP2K| Program compiled for                                                local
 CP2K| Data directory path    /projects/academic/mdupuis2/pavan/cp2k/cp2k-6.1/da
 CP2K| Input file name                                                 input.inp

 GLOBAL| Force Environment number                                              1
 GLOBAL| Basis set file name            /projects/academic/mdupuis2/pavan/BASIS_
 GLOBAL| Potential file name            /projects/academic/mdupuis2/pavan/POTENT
 GLOBAL| MM Potential file name                                     MM_POTENTIAL
 GLOBAL| Coordinate file name                                         ./opt0.xyz
 GLOBAL| Method name                                                        CP2K
 GLOBAL| Project name                                                    p_tio2_
 GLOBAL| Preferred FFT library                                             FFTW3
 GLOBAL| Preferred diagonalization lib.                                       SL
 GLOBAL| Run type                                                        GEO_OPT
 GLOBAL| All-to-all communication in single precision                          F
 GLOBAL| FFTs using library dependent lengths                                  T
 GLOBAL| Global print level                                               MEDIUM
 GLOBAL| Total number of message passing processes                            40
 GLOBAL| Number of threads for this process                                    1
 GLOBAL| This output is from process                                           0
 GLOBAL| CPU model name :  Intel(R) Xeon(R) CPU E5-2650 v4 @ 2.20GHz

 MEMORY| system memory details [Kb]
 MEMORY|                        rank 0           min           max       average
 MEMORY| MemTotal            131746148     131740876     131746148     131743512
 MEMORY| MemFree             123611120     123611120     124816700     124213910
 MEMORY| Buffers                379536        379536        493012        436274
 MEMORY| Cached                3425280       2217568       3425280       2821424
 MEMORY| Slab                   335076        335076        405492        370284
 MEMORY| SReclaimable           220172        220172        227856        224014
 MEMORY| MemLikelyFree       127636108     127636108     127755136     127695622


 *** Fundamental physical constants (SI units) ***

 *** Literature: B. J. Mohr and B. N. Taylor,
 ***             CODATA recommended values of the fundamental physical
 ***             constants: 2006, Web Version 5.1
 ***             http://physics.nist.gov/constants

 Speed of light in vacuum [m/s]                             2.99792458000000E+08
 Magnetic constant or permeability of vacuum [N/A**2]       1.25663706143592E-06
 Electric constant or permittivity of vacuum [F/m]          8.85418781762039E-12
 Planck constant (h) [J*s]                                  6.62606896000000E-34
 Planck constant (h-bar) [J*s]                              1.05457162825177E-34
 Elementary charge [C]                                      1.60217648700000E-19
 Electron mass [kg]                                         9.10938215000000E-31
 Electron g factor [ ]                                     -2.00231930436220E+00
 Proton mass [kg]                                           1.67262163700000E-27
 Fine-structure constant                                    7.29735253760000E-03
 Rydberg constant [1/m]                                     1.09737315685270E+07
 Avogadro constant [1/mol]                                  6.02214179000000E+23
 Boltzmann constant [J/K]                                   1.38065040000000E-23
 Atomic mass unit [kg]                                      1.66053878200000E-27
 Bohr radius [m]                                            5.29177208590000E-11

 *** Conversion factors ***

 [u] -> [a.u.]                                              1.82288848426455E+03
 [Angstrom] -> [Bohr] = [a.u.]                              1.88972613288564E+00
 [a.u.] = [Bohr] -> [Angstrom]                              5.29177208590000E-01
 [a.u.] -> [s]                                              2.41888432650478E-17
 [a.u.] -> [fs]                                             2.41888432650478E-02
 [a.u.] -> [J]                                              4.35974393937059E-18
 [a.u.] -> [N]                                              8.23872205491840E-08
 [a.u.] -> [K]                                              3.15774647902944E+05
 [a.u.] -> [kJ/mol]                                         2.62549961709828E+03
 [a.u.] -> [kcal/mol]                                       6.27509468713739E+02
 [a.u.] -> [Pa]                                             2.94210107994716E+13
 [a.u.] -> [bar]                                            2.94210107994716E+08
 [a.u.] -> [atm]                                            2.90362800883016E+08
 [a.u.] -> [eV]                                             2.72113838565563E+01
 [a.u.] -> [Hz]                                             6.57968392072181E+15
 [a.u.] -> [1/cm] (wave numbers)                            2.19474631370540E+05
 [a.u./Bohr**2] -> [1/cm]                                   5.14048714338585E+03
 

 CELL_TOP| Volume [angstrom^3]:                                         2867.349
 CELL_TOP| Vector a [angstrom    13.869     0.000     0.000    |a| =      13.869
 CELL_TOP| Vector b [angstrom     0.000    13.869     0.000    |b| =      13.869
 CELL_TOP| Vector c [angstrom     0.000     0.000    14.907    |c| =      14.907
 CELL_TOP| Angle (b,c), alpha [degree]:                                   90.000
 CELL_TOP| Angle (a,c), beta  [degree]:                                   90.000
 CELL_TOP| Angle (a,b), gamma [degree]:                                   90.000
 CELL_TOP| Numerically orthorhombic:                                         YES

 CELL| Volume [angstrom^3]:                                             2867.349
 CELL| Vector a [angstrom]:      13.869     0.000     0.000    |a| =      13.869
 CELL| Vector b [angstrom]:       0.000    13.869     0.000    |b| =      13.869
 CELL| Vector c [angstrom]:       0.000     0.000    14.907    |c| =      14.907
 CELL| Angle (b,c), alpha [degree]:                                       90.000
 CELL| Angle (a,c), beta  [degree]:                                       90.000
 CELL| Angle (a,b), gamma [degree]:                                       90.000
 CELL| Numerically orthorhombic:                                             YES

 CELL_REF| Volume [angstrom^3]:                                         2867.349
 CELL_REF| Vector a [angstrom    13.869     0.000     0.000    |a| =      13.869
 CELL_REF| Vector b [angstrom     0.000    13.869     0.000    |b| =      13.869
 CELL_REF| Vector c [angstrom     0.000     0.000    14.907    |c| =      14.907
 CELL_REF| Angle (b,c), alpha [degree]:                                   90.000
 CELL_REF| Angle (a,c), beta  [degree]:                                   90.000
 CELL_REF| Angle (a,b), gamma [degree]:                                   90.000
 CELL_REF| Numerically orthorhombic:                                         YES

 *******************************************************************************
 *******************************************************************************
 **                                                                           **
 **     #####                         ##              ##                      **
 **    ##   ##            ##          ##              ##                      **
 **   ##     ##                       ##            ######                    **
 **   ##     ##  ##   ##  ##   #####  ##  ##   ####   ##    #####    #####    **
 **   ##     ##  ##   ##  ##  ##      ## ##   ##      ##   ##   ##  ##   ##   **
 **   ##  ## ##  ##   ##  ##  ##      ####     ###    ##   ######   ######    **
 **    ##  ###   ##   ##  ##  ##      ## ##      ##   ##   ##       ##        **
 **     #######   #####   ##   #####  ##  ##  ####    ##    #####   ##        **
 **           ##                                                    ##        **
 **                                                                           **
 **                                                ... make the atoms dance   **
 **                                                                           **
 **            Copyright (C) by CP2K developers group (2000 - 2018)           **
 **                                                                           **
 *******************************************************************************

 DFT| Spin unrestricted (spin-polarized) Kohn-Sham calculation               UKS
 DFT| Multiplicity                                                             2
 DFT| Number of spin states                                                    2
 DFT| Charge                                                                  -1
 DFT| Self-interaction correction (SIC)                                       NO
 DFT| Cutoffs: density                                              1.000000E-10
 DFT|          gradient                                             1.000000E-10
 DFT|          tau                                                  1.000000E-10
 DFT|          cutoff_smoothing_range                               0.000000E+00
 DFT| XC density smoothing                                                  NONE
 DFT| XC derivatives                                                          PW

 DFT+U| Method                                                          MULLIKEN
 DFT+U| Check atomic kind information for details
 FUNCTIONAL| ROUTINE=NEW
 FUNCTIONAL| PBE:
 FUNCTIONAL| J.P.Perdew, K.Burke, M.Ernzerhof, Phys. Rev. Letter, vol. 77, n 18,
 FUNCTIONAL|  pp. 3865-3868, (1996){spin polarized}                             

 QS| Method:                                                                 GPW
 QS| Density plane wave grid type                        NON-SPHERICAL FULLSPACE
 QS| Number of grid levels:                                                   10
 QS| Density cutoff [a.u.]:                                                325.0
 QS| Multi grid cutoff [a.u.]: 1) grid level                               325.0
 QS|                           2) grid level                               108.3
 QS|                           3) grid level                                36.1
 QS|                           4) grid level                                12.0
 QS|                           5) grid level                                 4.0
 QS|                           6) grid level                                 1.3
 QS|                           7) grid level                                 0.4
 QS|                           8) grid level                                 0.1
 QS|                           9) grid level                                 0.0
 QS|                          10) grid level                                 0.0
 QS| Grid level progression factor:                                          3.0
 QS| Relative density cutoff [a.u.]:                                        30.0
 QS| Consistent realspace mapping and integration 
 QS| Interaction thresholds: eps_pgf_orb:                                1.0E-12
 QS|                         eps_filter_matrix:                          0.0E+00
 QS|                         eps_core_charge:                            1.0E-14
 QS|                         eps_rho_gspace:                             1.0E-12
 QS|                         eps_rho_rspace:                             1.0E-12
 QS|                         eps_gvg_rspace:                             1.0E-06
 QS|                         eps_ppl:                                    1.0E-02
 QS|                         eps_ppnl:                                   1.0E-08


 ATOMIC KIND INFORMATION

  1. Atomic kind: Ti                                    Number of atoms:      90

     Orbital Basis Set                                         SZV-MOLOPT-SR-GTH

       Number of orbital shell sets:                                           1
       Number of orbital shells:                                               4
       Number of primitive Cartesian functions:                                6
       Number of Cartesian basis functions:                                   11
       Number of spherical basis functions:                                   10
       Norm type:                                                              2

       Normalised Cartesian orbitals:

                        Set   Shell   Orbital            Exponent    Coefficient

                          1       1    2s                7.884570       0.015554
                                                         3.894698       0.963603
                                                         1.513589      -0.631435
                                                         0.596768      -0.343022
                                                         0.222222      -0.006534
                                                         0.077078       0.007652

                          1       2    3s                7.884570      -0.009340
                                                         3.894698       0.212624
                                                         1.513589      -0.258368
                                                         0.596768      -0.226206
                                                         0.222222       0.039438
                                                         0.077078       0.107179

                          1       3    3px               7.884570      -2.034794
                                                         3.894698       0.782008
                                                         1.513589       1.253903
                                                         0.596768       0.347823
                                                         0.222222       0.016778
                                                         0.077078      -0.000433
                          1       3    3py               7.884570      -2.034794
                                                         3.894698       0.782008
                                                         1.513589       1.253903
                                                         0.596768       0.347823
                                                         0.222222       0.016778
                                                         0.077078      -0.000433
                          1       3    3pz               7.884570      -2.034794
                                                         3.894698       0.782008
                                                         1.513589       1.253903
                                                         0.596768       0.347823
                                                         0.222222       0.016778
                                                         0.077078      -0.000433

                          1       4    4dx2              7.884570       3.047350
                                                         3.894698       3.289529
                                                         1.513589       1.060616
                                                         0.596768       0.249930
                                                         0.222222       0.038806
                                                         0.077078       0.002319
                          1       4    4dxy              7.884570       5.278165
                                                         3.894698       5.697631
                                                         1.513589       1.837041
                                                         0.596768       0.432892
                                                         0.222222       0.067214
                                                         0.077078       0.004017
                          1       4    4dxz              7.884570       5.278165
                                                         3.894698       5.697631
                                                         1.513589       1.837041
                                                         0.596768       0.432892
                                                         0.222222       0.067214
                                                         0.077078       0.004017
                          1       4    4dy2              7.884570       3.047350
                                                         3.894698       3.289529
                                                         1.513589       1.060616
                                                         0.596768       0.249930
                                                         0.222222       0.038806
                                                         0.077078       0.002319
                          1       4    4dyz              7.884570       5.278165
                                                         3.894698       5.697631
                                                         1.513589       1.837041
                                                         0.596768       0.432892
                                                         0.222222       0.067214
                                                         0.077078       0.004017
                          1       4    4dz2              7.884570       3.047350
                                                         3.894698       3.289529
                                                         1.513589       1.060616
                                                         0.596768       0.249930
                                                         0.222222       0.038806
                                                         0.077078       0.002319

     GTH Potential information for                                   GTH-PBE-q12

       Description:                       Goedecker-Teter-Hutter pseudopotential
                                           Goedecker et al., PRB 54, 1703 (1996)
                                          Hartwigsen et al., PRB 58, 3641 (1998)
                                                      Krack, TCA 114, 145 (2005)

       Gaussian exponent of the core charge distribution:               3.462604
       Electronic configuration (s p d ...):                           4   6   2

       Parameters of the local part of the GTH pseudopotential:

                          rloc        C1          C2          C3          C4
                        0.380000    8.711442   -0.700287

       Parameters of the non-local part of the GTH pseudopotential:

                   l      r(l)      h(i,j,l)

                   0    0.337771    2.575264    3.692971
                                    3.692971   -4.767605
                   1    0.242531   -4.630541    8.870875
                                    8.870875  -10.496161
                   2    0.243317   -9.406653

     A DFT+U correction is applied to atoms of this atomic kind:
       Angular quantum momentum number L:                                      2
       U(eff) = (U - J) value in [eV]:                                     9.987

  2. Atomic kind: O                                     Number of atoms:     180

     Orbital Basis Set                                            SZV-MOLOPT-GTH

       Number of orbital shell sets:                                           1
       Number of orbital shells:                                               2
       Number of primitive Cartesian functions:                                7
       Number of Cartesian basis functions:                                    4
       Number of spherical basis functions:                                    4
       Norm type:                                                              2

       Normalised Cartesian orbitals:

                        Set   Shell   Orbital            Exponent    Coefficient

                          1       1    2s               12.015955      -0.284499
                                                         5.108150      -0.322498
                                                         2.048398       0.148191
                                                         0.832382       0.295475
                                                         0.352316       0.150829
                                                         0.142977       0.015788
                                                         0.046761      -0.000019

                          1       2    3px              12.015955       1.192141
                                                         5.108150       1.354170
                                                         2.048398       0.897267
                                                         0.832382       0.408839
                                                         0.352316       0.116648
                                                         0.142977       0.022184
                                                         0.046761       0.000308
                          1       2    3py              12.015955       1.192141
                                                         5.108150       1.354170
                                                         2.048398       0.897267
                                                         0.832382       0.408839
                                                         0.352316       0.116648
                                                         0.142977       0.022184
                                                         0.046761       0.000308
                          1       2    3pz              12.015955       1.192141
                                                         5.108150       1.354170
                                                         2.048398       0.897267
                                                         0.832382       0.408839
                                                         0.352316       0.116648
                                                         0.142977       0.022184
                                                         0.046761       0.000308

     GTH Potential information for                                    GTH-PBE-q6

       Description:                       Goedecker-Teter-Hutter pseudopotential
                                           Goedecker et al., PRB 54, 1703 (1996)
                                          Hartwigsen et al., PRB 58, 3641 (1998)
                                                      Krack, TCA 114, 145 (2005)

       Gaussian exponent of the core charge distribution:               8.360253
       Electronic configuration (s p d ...):                               2   4

       Parameters of the local part of the GTH pseudopotential:

                          rloc        C1          C2          C3          C4
                        0.244554  -16.667215    2.487311

       Parameters of the non-local part of the GTH pseudopotential:

                   l      r(l)      h(i,j,l)

                   0    0.220956   18.337458
                   1    0.211332


 MOLECULE KIND INFORMATION


 All atoms are their own molecule, skipping detailed information


 TOTAL NUMBERS AND MAXIMUM NUMBERS

  Total number of            - Atomic kinds:                                   2
                             - Atoms:                                        270
                             - Shell sets:                                   270
                             - Shells:                                       720
                             - Primitive Cartesian functions:               1800
                             - Cartesian basis functions:                   1710
                             - Spherical basis functions:                   1620

  Maximum angular momentum of- Orbital basis functions:                        2
                             - Local part of the GTH pseudopotential:          2
                             - Non-local part of the GTH pseudopotential:      3


 MODULE QUICKSTEP:  ATOMIC COORDINATES IN angstrom

  Atom  Kind  Element       X           Y           Z          Z(eff)       Mass

       1     1 Ti  22    0.000727   -0.000213    0.000065     12.00      47.8670
       2     1 Ti  22    2.312506    2.311150    1.491292     12.00      47.8670
       3     1 Ti  22    4.631376    0.008359    0.000060     12.00      47.8670
       4     1 Ti  22    6.934591    2.311584    1.506341     12.00      47.8670
       5     1 Ti  22    9.245234    0.000994    0.000058     12.00      47.8670
       6     1 Ti  22   11.556824    2.312194    1.491157     12.00      47.8670
       7     1 Ti  22   -0.000508    4.623407    0.000065     12.00      47.8670
       8     1 Ti  22    2.311115    6.935106    1.490651     12.00      47.8670
       9     1 Ti  22    4.624001    4.622230    0.000058     12.00      47.8670
      10     1 Ti  22    6.935192    6.933819    1.491158     12.00      47.8670
      11     1 Ti  22    9.237799    4.614799    0.000060     12.00      47.8670
      12     1 Ti  22   11.555327    6.932316    1.491481     12.00      47.8670
      13     1 Ti  22    0.000057    9.246053    0.000060     12.00      47.8670
      14     1 Ti  22    2.313823   11.559820    1.491508     12.00      47.8670
      15     1 Ti  22    4.622793    9.246726    0.000065     12.00      47.8670
      16     1 Ti  22    6.934159   11.558500    1.491295     12.00      47.8670
      17     1 Ti  22    9.246409    9.245482    0.000065     12.00      47.8670
      18     1 Ti  22   11.558109   11.557109    1.490651     12.00      47.8670
      19     1 Ti  22   -0.001379    0.000410    2.981765     12.00      47.8670
      20     1 Ti  22    2.310575    2.305850    4.472289     12.00      47.8670
      21     1 Ti  22    4.626596    0.003588    2.982348     12.00      47.8670
      22     1 Ti  22    6.934664    2.311656    4.508154     12.00      47.8670
      23     1 Ti  22    9.248943   -0.001939    2.985778     12.00      47.8670
      24     1 Ti  22   11.559697    2.318635    4.471883     12.00      47.8670
      25     1 Ti  22    0.001864    4.623046    2.981686     12.00      47.8670
      26     1 Ti  22    2.312874    6.934074    4.472708     12.00      47.8670
      27     1 Ti  22    4.621066    4.625927    2.985776     12.00      47.8670
      28     1 Ti  22    6.941639    6.936708    4.471878     12.00      47.8670
      29     1 Ti  22    9.242571    4.619568    2.982352     12.00      47.8670
      30     1 Ti  22   11.555557    6.932534    4.476006     12.00      47.8670
      31     1 Ti  22    0.000084    9.246077    2.983765     12.00      47.8670
      32     1 Ti  22    2.313837   11.559828    4.476096     12.00      47.8670
      33     1 Ti  22    4.623411    9.244617    2.981764     12.00      47.8670
      34     1 Ti  22    6.928876   11.556522    4.472286     12.00      47.8670
      35     1 Ti  22    9.246062    9.247850    2.981680     12.00      47.8670
      36     1 Ti  22   11.557103   11.558874    4.472708     12.00      47.8670
      37     1 Ti  22   -0.000472   -0.001344    5.962191     12.00      47.8670
      38     1 Ti  22    2.310338    2.314963    7.453612     12.00      47.8670
      39     1 Ti  22    4.637037    0.013925    5.961668     12.00      47.8670
      40     1 Ti  22    6.934349    2.311332    7.453521     12.00      47.8670
      41     1 Ti  22    9.246157    0.004581    5.968819     12.00      47.8670
      42     1 Ti  22   11.560018    2.309351    7.453612     12.00      47.8670
      43     1 Ti  22    0.001585    4.625359    5.962363     12.00      47.8670
      44     1 Ti  22    2.314233    6.937237    7.453613     12.00      47.8670
      45     1 Ti  22    4.627617    4.623158    5.968822     12.00      47.8670
      46     1 Ti  22    6.932334    6.937011    7.453612     12.00      47.8670
      47     1 Ti  22    9.232479    4.609496    5.961499     12.00      47.8670
      48     1 Ti  22   11.549325    6.926294    7.453613     12.00      47.8670
      49     1 Ti  22    0.000183    9.246168    5.964272     12.00      47.8670
      50     1 Ti  22    2.320009   11.566002    7.453613     12.00      47.8670
      51     1 Ti  22    4.621677    9.245542    5.962190     12.00      47.8670
      52     1 Ti  22    6.938084   11.556308    7.453612     12.00      47.8670
      53     1 Ti  22    9.248389    9.247535    5.962357     12.00      47.8670
      54     1 Ti  22   11.560208   11.560170    7.453613     12.00      47.8670
      55     1 Ti  22   -0.000474   -0.001342    8.944942     12.00      47.8670
      56     1 Ti  22    2.310580    2.305846   10.434938     12.00      47.8670
      57     1 Ti  22    4.637053    0.013940    8.945450     12.00      47.8670
      58     1 Ti  22    6.934664    2.311656   10.398910     12.00      47.8670
      59     1 Ti  22    9.246148    0.004589    8.938289     12.00      47.8670
      60     1 Ti  22   11.559691    2.318638   10.435344     12.00      47.8670
      61     1 Ti  22    0.001586    4.625357    8.944770     12.00      47.8670
      62     1 Ti  22    2.312882    6.934065   10.434518     12.00      47.8670
      63     1 Ti  22    4.627626    4.623149    8.938286     12.00      47.8670
      64     1 Ti  22    6.941642    6.936701   10.435349     12.00      47.8670
      65     1 Ti  22    9.232463    4.609481    8.945619     12.00      47.8670
      66     1 Ti  22   11.555546    6.932523   10.431211     12.00      47.8670
      67     1 Ti  22    0.000183    9.246168    8.942861     12.00      47.8670
      68     1 Ti  22    2.313848   11.559840   10.431121     12.00      47.8670
      69     1 Ti  22    4.621678    9.245540    8.944944     12.00      47.8670
      70     1 Ti  22    6.928871   11.556528   10.434942     12.00      47.8670
      71     1 Ti  22    9.248387    9.247536    8.944776     12.00      47.8670
      72     1 Ti  22   11.557095   11.558882   10.434519     12.00      47.8670
      73     1 Ti  22   -0.001381    0.000410   11.925363     12.00      47.8670
      74     1 Ti  22    2.312506    2.311148   13.415935     12.00      47.8670
      75     1 Ti  22    4.626610    0.003602   11.924771     12.00      47.8670
      76     1 Ti  22    6.934591    2.311584   13.400748     12.00      47.8670
      77     1 Ti  22    9.248941   -0.001938   11.921333     12.00      47.8670
      78     1 Ti  22   11.556824    2.312196   13.416069     12.00      47.8670
      79     1 Ti  22    0.001866    4.623046   11.925442     12.00      47.8670
      80     1 Ti  22    2.311115    6.935106   13.416575     12.00      47.8670
      81     1 Ti  22    4.621067    4.625924   11.921336     12.00      47.8670
      82     1 Ti  22    6.935193    6.933819   13.416068     12.00      47.8670
      83     1 Ti  22    9.242557    4.619554   11.924767     12.00      47.8670
      84     1 Ti  22   11.555326    6.932316   13.415726     12.00      47.8670
      85     1 Ti  22    0.000084    9.246077   11.923353     12.00      47.8670
      86     1 Ti  22    2.313823   11.559820   13.415700     12.00      47.8670
      87     1 Ti  22    4.623411    9.244614   11.925364     12.00      47.8670
      88     1 Ti  22    6.934157   11.558500   13.415932     12.00      47.8670
      89     1 Ti  22    9.246062    9.247852   11.925448     12.00      47.8670
      90     1 Ti  22   11.558109   11.557109   13.416575     12.00      47.8670
      91     2 O    8    1.404643    1.406483    0.000000      6.00      15.9994
      92     2 O    8    3.216994    3.216579    0.000001      6.00      15.9994
      93     2 O    8    0.901887    3.723959    1.490233      6.00      15.9994
      94     2 O    8    3.718958    0.897727    1.490392      6.00      15.9994
      95     2 O    8    6.027056    1.404050   -0.000000      6.00      15.9994
      96     2 O    8    7.842093    3.219090    0.000000      6.00      15.9994
      97     2 O    8    5.519398    3.726900    1.490700      6.00      15.9994
      98     2 O    8    8.349912    0.896393    1.490702      6.00      15.9994
      99     2 O    8   10.652227    1.406682    0.000001      6.00      15.9994
     100     2 O    8   12.464698    3.216900    0.000000      6.00      15.9994
     101     2 O    8   10.150482    3.725635    1.490313      6.00      15.9994
     102     2 O    8   12.967691    0.899439    1.490213      6.00      15.9994
     103     2 O    8    1.405208    6.029228    0.000001      6.00      15.9994
     104     2 O    8    3.216973    7.841014    0.000001      6.00      15.9994
     105     2 O    8    0.900347    8.345739    1.490270      6.00      15.9994
     106     2 O    8    3.720463    5.526107    1.489937      6.00      15.9994
     107     2 O    8    6.029681    6.029221    0.000001      6.00      15.9994
     108     2 O    8    7.839898    7.841693    0.000000      6.00      15.9994
     109     2 O    8    5.522435    8.344677    1.490211      6.00      15.9994
     110     2 O    8    8.348632    5.527479    1.490313      6.00      15.9994
     111     2 O    8   10.653210    6.030206    0.000001      6.00      15.9994
     112     2 O    8   12.463968    7.840962   -0.000000      6.00      15.9994
     113     2 O    8   10.144433    8.347943    1.490306      6.00      15.9994
     114     2 O    8   12.970955    5.521420    1.490306      6.00      15.9994
     115     2 O    8    1.405181   10.651181   -0.000000      6.00      15.9994
     116     2 O    8    3.216008   12.462005    0.000001      6.00      15.9994
     117     2 O    8    0.898418   12.970887    1.490316      6.00      15.9994
     118     2 O    8    3.724888   10.144413    1.490316      6.00      15.9994
     119     2 O    8    6.029490   10.650635    0.000000      6.00      15.9994
     120     2 O    8    7.839588   12.462988    0.000001      6.00      15.9994
     121     2 O    8    5.520742   12.964932    1.490389      6.00      15.9994
     122     2 O    8    8.346972   10.147869    1.490233      6.00      15.9994
     123     2 O    8   10.652231   10.651204    0.000001      6.00      15.9994
     124     2 O    8   12.464017   12.462970    0.000001      6.00      15.9994
     125     2 O    8   10.149123   12.966462    1.489937      6.00      15.9994
     126     2 O    8   12.968744   10.146338    1.490271      6.00      15.9994
     127     2 O    8    1.402366    1.407673    2.979220      6.00      15.9994
     128     2 O    8    3.215914    3.217050    2.981619      6.00      15.9994
     129     2 O    8    0.898079    3.722986    4.472167      6.00      15.9994
     130     2 O    8    3.690628    0.886979    4.467360      6.00      15.9994
     131     2 O    8    6.023497    1.400494    2.972755      6.00      15.9994
     132     2 O    8    7.845647    3.222643    2.972697      6.00      15.9994
     133     2 O    8    5.514012    3.732975    4.469686      6.00      15.9994
     134     2 O    8    8.355984    0.890998    4.469687      6.00      15.9994
     135     2 O    8   10.653640    1.406971    2.981310      6.00      15.9994
     136     2 O    8   12.467106    3.216227    2.978854      6.00      15.9994
     137     2 O    8   10.178960    3.736669    4.467035      6.00      15.9994
     138     2 O    8   12.971659    0.900745    4.472101      6.00      15.9994
     139     2 O    8    1.405031    6.029076    2.980751      6.00      15.9994
     140     2 O    8    3.217128    7.841596    2.980497      6.00      15.9994
     141     2 O    8    0.899705    8.346123    4.471352      6.00      15.9994
     142     2 O    8    3.717524    5.534064    4.470562      6.00      15.9994
     143     2 O    8    6.029957    6.030637    2.981314      6.00      15.9994
     144     2 O    8    7.839229    7.844103    2.978848      6.00      15.9994
     145     2 O    8    5.523753    8.348657    4.472099      6.00      15.9994
     146     2 O    8    8.359673    5.555972    4.467033      6.00      15.9994
     147     2 O    8   10.654996    6.031985    2.978807      6.00      15.9994
     148     2 O    8   12.464247    7.841241    2.981198      6.00      15.9994
     149     2 O    8   10.144891    8.347965    4.471800      6.00      15.9994
     150     2 O    8   12.970995    5.521871    4.471805      6.00      15.9994
     151     2 O    8    1.404943   10.650938    2.981290      6.00      15.9994
     152     2 O    8    3.214325   12.460326    2.978748      6.00      15.9994
     153     2 O    8    0.899085   12.970944    4.471555      6.00      15.9994
     154     2 O    8    3.724950   10.145076    4.471550      6.00      15.9994
     155     2 O    8    6.030683   10.648349    2.979210      6.00      15.9994
     156     2 O    8    7.840075   12.461902    2.981622      6.00      15.9994
     157     2 O    8    5.509993   12.936546    4.467349      6.00      15.9994
     158     2 O    8    8.346011   10.144046    4.472163      6.00      15.9994
     159     2 O    8   10.652081   10.651033    2.980757      6.00      15.9994
     160     2 O    8   12.464612   12.463120    2.980489      6.00      15.9994
     161     2 O    8   10.157215   12.963617    4.470558      6.00      15.9994
     162     2 O    8   12.969147   10.145700    4.471352      6.00      15.9994
     163     2 O    8    1.404023    1.407302    5.965721      6.00      15.9994
     164     2 O    8    3.215573    3.219640    5.962287      6.00      15.9994
     165     2 O    8    0.903507    3.725938    7.453503      6.00      15.9994
     166     2 O    8    3.730940    0.907482    7.453504      6.00      15.9994
     167     2 O    8    6.003723    1.380727    5.885531      6.00      15.9994
     168     2 O    8    7.865552    3.242543    5.885855      6.00      15.9994
     169     2 O    8    5.499906    3.746580    7.453504      6.00      15.9994
     170     2 O    8    8.369612    0.876908    7.453504      6.00      15.9994
     171     2 O    8   10.654209    1.408904    5.960642      6.00      15.9994
     172     2 O    8   12.466168    3.217010    5.965788      6.00      15.9994
     173     2 O    8   10.138625    3.716805    7.453504      6.00      15.9994
     174     2 O    8   12.966827    0.898023    7.453503      6.00      15.9994
     175     2 O    8    1.405180    6.029797    5.962863      6.00      15.9994
     176     2 O    8    3.215683    7.844630    5.960710      6.00      15.9994
     177     2 O    8    0.899352    8.347984    7.453503      6.00      15.9994
     178     2 O    8    3.723646    5.560132    7.453501      6.00      15.9994
     179     2 O    8    6.031908    6.031213    5.960616      6.00      15.9994
     180     2 O    8    7.840013    7.843164    5.965789      6.00      15.9994
     181     2 O    8    5.521020    8.343811    7.453503      6.00      15.9994
     182     2 O    8    8.339708    5.515619    7.453504      6.00      15.9994
     183     2 O    8   10.657119    6.034114    5.964117      6.00      15.9994
     184     2 O    8   12.464801    7.841789    5.961698      6.00      15.9994
     185     2 O    8   10.143973    8.348312    7.453503      6.00      15.9994
     186     2 O    8   12.971349    5.520937    7.453503      6.00      15.9994
     187     2 O    8    1.404556   10.650553    5.961554      6.00      15.9994
     188     2 O    8    3.212433   12.458367    5.964251      6.00      15.9994
     189     2 O    8    0.898281   12.971671    7.453503      6.00      15.9994
     190     2 O    8    3.725679   10.144266    7.453503      6.00      15.9994
     191     2 O    8    6.030321   10.650007    5.965726      6.00      15.9994
     192     2 O    8    7.842692   12.461531    5.962240      6.00      15.9994
     193     2 O    8    5.530990   12.976974    7.453504      6.00      15.9994
     194     2 O    8    8.348986   10.149438    7.453503      6.00      15.9994
     195     2 O    8   10.652807   10.651159    5.962843      6.00      15.9994
     196     2 O    8   12.467633   12.461673    5.960729      6.00      15.9994
     197     2 O    8   10.183071   12.969523    7.453501      6.00      15.9994
     198     2 O    8   12.970980   10.145317    7.453503      6.00      15.9994
     199     2 O    8    1.404024    1.407301    8.941282      6.00      15.9994
     200     2 O    8    3.215574    3.219640    8.944713      6.00      15.9994
     201     2 O    8    0.898078    3.722988   10.434840      6.00      15.9994
     202     2 O    8    3.690635    0.886981   10.439647      6.00      15.9994
     203     2 O    8    6.003726    1.380730    9.021477      6.00      15.9994
     204     2 O    8    7.865549    3.242540    9.021153      6.00      15.9994
     205     2 O    8    5.514013    3.732974   10.437319      6.00      15.9994
     206     2 O    8    8.355983    0.890998   10.437318      6.00      15.9994
     207     2 O    8   10.654208    1.408903    8.946359      6.00      15.9994
     208     2 O    8   12.466168    3.217010    8.941215      6.00      15.9994
     209     2 O    8   10.178954    3.736666   10.439972      6.00      15.9994
     210     2 O    8   12.971659    0.900743   10.434905      6.00      15.9994
     211     2 O    8    1.405181    6.029797    8.944139      6.00      15.9994
     212     2 O    8    3.215683    7.844629    8.946292      6.00      15.9994
     213     2 O    8    0.899704    8.346125   10.435656      6.00      15.9994
     214     2 O    8    3.717528    5.534058   10.436443      6.00      15.9994
     215     2 O    8    6.031907    6.031211    8.946385      6.00      15.9994
     216     2 O    8    7.840014    7.843163    8.941214      6.00      15.9994
     217     2 O    8    5.523752    8.348657   10.434908      6.00      15.9994
     218     2 O    8    8.359670    5.555965   10.439975      6.00      15.9994
     219     2 O    8   10.657120    6.034115    8.942890      6.00      15.9994
     220     2 O    8   12.464800    7.841788    8.945300      6.00      15.9994
     221     2 O    8   10.144888    8.347966   10.435207      6.00      15.9994
     222     2 O    8   12.970995    5.521869   10.435203      6.00      15.9994
     223     2 O    8    1.404557   10.650554    8.945444      6.00      15.9994
     224     2 O    8    3.212432   12.458366    8.942755      6.00      15.9994
     225     2 O    8    0.899085   12.970947   10.435453      6.00      15.9994
     226     2 O    8    3.724953   10.145075   10.435457      6.00      15.9994
     227     2 O    8    6.030320   10.650007    8.941277      6.00      15.9994
     228     2 O    8    7.842693   12.461533    8.944760      6.00      15.9994
     229     2 O    8    5.509995   12.936552   10.439658      6.00      15.9994
     230     2 O    8    8.346012   10.144046   10.434843      6.00      15.9994
     231     2 O    8   10.652807   10.651160    8.944159      6.00      15.9994
     232     2 O    8   12.467633   12.461674    8.946273      6.00      15.9994
     233     2 O    8   10.157209   12.963620   10.436446      6.00      15.9994
     234     2 O    8   12.969149   10.145699   10.435656      6.00      15.9994
     235     2 O    8    1.402366    1.407672   11.927781      6.00      15.9994
     236     2 O    8    3.215915    3.217049   11.925381      6.00      15.9994
     237     2 O    8    0.901891    3.723958   13.416773      6.00      15.9994
     238     2 O    8    3.718955    0.897728   13.416617      6.00      15.9994
     239     2 O    8    6.023497    1.400494   11.934248      6.00      15.9994
     240     2 O    8    7.845647    3.222643   11.934305      6.00      15.9994
     241     2 O    8    5.519400    3.726898   13.416304      6.00      15.9994
     242     2 O    8    8.349910    0.896396   13.416303      6.00      15.9994
     243     2 O    8   10.653639    1.406972   11.925689      6.00      15.9994
     244     2 O    8   12.467106    3.216228   11.928146      6.00      15.9994
     245     2 O    8   10.150483    3.725633   13.416696      6.00      15.9994
     246     2 O    8   12.967687    0.899439   13.416794      6.00      15.9994
     247     2 O    8    1.405031    6.029076   11.926249      6.00      15.9994
     248     2 O    8    3.217128    7.841595   11.926503      6.00      15.9994
     249     2 O    8    0.900349    8.345737   13.416737      6.00      15.9994
     250     2 O    8    3.720461    5.526108   13.417068      6.00      15.9994
     251     2 O    8    6.029958    6.030636   11.925686      6.00      15.9994
     252     2 O    8    7.839230    7.844103   11.928153      6.00      15.9994
     253     2 O    8    5.522435    8.344674   13.416796      6.00      15.9994
     254     2 O    8    8.348630    5.527481   13.416696      6.00      15.9994
     255     2 O    8   10.654995    6.031984   11.928193      6.00      15.9994
     256     2 O    8   12.464245    7.841240   11.925801      6.00      15.9994
     257     2 O    8   10.144434    8.347941   13.416701      6.00      15.9994
     258     2 O    8   12.970953    5.521421   13.416701      6.00      15.9994
     259     2 O    8    1.404944   10.650940   11.925709      6.00      15.9994
     260     2 O    8    3.214326   12.460326   11.928252      6.00      15.9994
     261     2 O    8    0.898419   12.970885   13.416691      6.00      15.9994
     262     2 O    8    3.724887   10.144414   13.416691      6.00      15.9994
     263     2 O    8    6.030682   10.648349   11.927791      6.00      15.9994
     264     2 O    8    7.840074   12.461903   11.925378      6.00      15.9994
     265     2 O    8    5.520744   12.964930   13.416620      6.00      15.9994
     266     2 O    8    8.346972   10.147873   13.416774      6.00      15.9994
     267     2 O    8   10.652081   10.651034   11.926243      6.00      15.9994
     268     2 O    8   12.464611   12.463121   11.926511      6.00      15.9994
     269     2 O    8   10.149124   12.966460   13.417068      6.00      15.9994
     270     2 O    8   12.968742   10.146340   13.416737      6.00      15.9994




 SCF PARAMETERS         Density guess:                                   RESTART
                        --------------------------------------------------------
                        max_scf:                                             500
                        max_scf_history:                                       0
                        max_diis:                                              4
                        --------------------------------------------------------
                        eps_scf:                                        1.00E-05
                        eps_scf_history:                                0.00E+00
                        eps_diis:                                       5.00E-01
                        eps_eigval:                                     1.00E-05
                        --------------------------------------------------------
                        level_shift [a.u.]:                                 0.00
                        --------------------------------------------------------
                        Mixing method:                            BROYDEN_MIXING
                                                charge density mixing in g-space
                        --------------------------------------------------------
                        Outer loop SCF in use 
                        No variables optimised in outer loop
                        eps_scf                                         1.00E-05
                        max_scf                                              500
                        No outer loop optimization
                        step_size                                       5.00E-01

 PW_GRID| Information for grid number                                          1
 PW_GRID| Grid distributed over                                    40 processors
 PW_GRID| Real space group dimensions                                    40    1
 PW_GRID| the grid is blocked:                                                NO
 PW_GRID| Cutoff [a.u.]                                                    325.0
 PW_GRID| spherical cutoff:                                                   NO
 PW_GRID|   Bounds   1           -108     107                Points:         216
 PW_GRID|   Bounds   2           -108     107                Points:         216
 PW_GRID|   Bounds   3           -115     115                Points:         231
 PW_GRID| Volume element (a.u.^3)  0.1795E-02     Volume (a.u.^3)     19349.8300
 PW_GRID| Grid span                                                    FULLSPACE
 PW_GRID|   Distribution                         Average         Max         Min
 PW_GRID|   G-Vectors                           269438.4      269568      269352
 PW_GRID|   G-Rays                                1247.4        1248        1247
 PW_GRID|   Real Space Points                   269438.4      299376      249480

 PW_GRID| Information for grid number                                          2
 PW_GRID| Grid distributed over                                    40 processors
 PW_GRID| Real space group dimensions                                    40    1
 PW_GRID| the grid is blocked:                                                NO
 PW_GRID| Cutoff [a.u.]                                                    108.3
 PW_GRID| spherical cutoff:                                                   NO
 PW_GRID|   Bounds   1            -63      62                Points:         126
 PW_GRID|   Bounds   2            -63      62                Points:         126
 PW_GRID|   Bounds   3            -66      65                Points:         132
 PW_GRID| Volume element (a.u.^3)  0.9233E-02     Volume (a.u.^3)     19349.8300
 PW_GRID| Grid span                                                    FULLSPACE
 PW_GRID|   Distribution                         Average         Max         Min
 PW_GRID|   G-Vectors                            52390.8       52794       52290
 PW_GRID|   G-Rays                                 415.8         419         415
 PW_GRID|   Real Space Points                    52390.8       66528       49896

 PW_GRID| Information for grid number                                          3
 PW_GRID| Grid distributed over                                    40 processors
 PW_GRID| Real space group dimensions                                    40    1
 PW_GRID| the grid is blocked:                                                NO
 PW_GRID| Cutoff [a.u.]                                                     36.1
 PW_GRID| spherical cutoff:                                                   NO
 PW_GRID|   Bounds   1            -36      35                Points:          72
 PW_GRID|   Bounds   2            -36      35                Points:          72
 PW_GRID|   Bounds   3            -38      38                Points:          77
 PW_GRID| Volume element (a.u.^3)  0.4848E-01     Volume (a.u.^3)     19349.8300
 PW_GRID| Grid span                                                    FULLSPACE
 PW_GRID|   Distribution                         Average         Max         Min
 PW_GRID|   G-Vectors                             9979.2       10008        9936
 PW_GRID|   G-Rays                                 138.6         139         138
 PW_GRID|   Real Space Points                     9979.2       11088        5544

 PW_GRID| Information for grid number                                          4
 PW_GRID| Grid distributed over                                    40 processors
 PW_GRID| Real space group dimensions                                    40    1
 PW_GRID| the grid is blocked:                                                NO
 PW_GRID| Cutoff [a.u.]                                                     12.0
 PW_GRID| spherical cutoff:                                                   NO
 PW_GRID|   Bounds   1            -21      20                Points:          42
 PW_GRID|   Bounds   2            -21      20                Points:          42
 PW_GRID|   Bounds   3            -22      21                Points:          44
 PW_GRID| Volume element (a.u.^3)  0.2493         Volume (a.u.^3)     19349.8300
 PW_GRID| Grid span                                                    FULLSPACE
 PW_GRID|   Distribution                         Average         Max         Min
 PW_GRID|   G-Vectors                             1940.4        2058        1848
 PW_GRID|   G-Rays                                  46.2          49          44
 PW_GRID|   Real Space Points                     1940.4        3696        1848

 PW_GRID| Information for grid number                                          5
 PW_GRID| Grid distributed over                                    40 processors
 PW_GRID| Real space group dimensions                                     5    8
 PW_GRID| the grid is blocked:                                                NO
 PW_GRID| Cutoff [a.u.]                                                      4.0
 PW_GRID| spherical cutoff:                                                   NO
 PW_GRID|   Bounds   1            -12      11                Points:          24
 PW_GRID|   Bounds   2            -12      11                Points:          24
 PW_GRID|   Bounds   3            -12      12                Points:          25
 PW_GRID| Volume element (a.u.^3)   1.344         Volume (a.u.^3)     19349.8300
 PW_GRID| Grid span                                                    FULLSPACE
 PW_GRID|   Distribution                         Average         Max         Min
 PW_GRID|   G-Vectors                              360.0         408         336
 PW_GRID|   G-Rays                                  15.0          17          14
 PW_GRID|   Real Space Points                      360.0         375         300

 PW_GRID| Information for grid number                                          6
 PW_GRID| Grid distributed over                                    40 processors
 PW_GRID| Real space group dimensions                                     5    8
 PW_GRID| the grid is blocked:                                                NO
 PW_GRID| Cutoff [a.u.]                                                      1.3
 PW_GRID| spherical cutoff:                                                   NO
 PW_GRID|   Bounds   1             -7       6                Points:          14
 PW_GRID|   Bounds   2             -7       6                Points:          14
 PW_GRID|   Bounds   3             -7       7                Points:          15
 PW_GRID| Volume element (a.u.^3)   6.582         Volume (a.u.^3)     19349.8300
 PW_GRID| Grid span                                                    FULLSPACE
 PW_GRID|   Distribution                         Average         Max         Min
 PW_GRID|   G-Vectors                               73.5          98          56
 PW_GRID|   G-Rays                                   5.2           7           4
 PW_GRID|   Real Space Points                       73.5          90          30

 PW_GRID| Information for grid number                                          7
 PW_GRID| Grid distributed over                                    40 processors
 PW_GRID| Real space group dimensions                                     5    8
 PW_GRID| the grid is blocked:                                                NO
 PW_GRID| Cutoff [a.u.]                                                      0.4
 PW_GRID| spherical cutoff:                                                   NO
 PW_GRID|   Bounds   1             -3       3                Points:           7
 PW_GRID|   Bounds   2             -3       3                Points:           7
 PW_GRID|   Bounds   3             -4       4                Points:           9
 PW_GRID| Volume element (a.u.^3)   43.88         Volume (a.u.^3)     19349.8300
 PW_GRID| Grid span                                                    FULLSPACE
 PW_GRID|   Distribution                         Average         Max         Min
 PW_GRID|   G-Vectors                               11.0          28           0
 PW_GRID|   G-Rays                                   1.6           4           0
 PW_GRID|   Real Space Points                       11.0          18           0

 PW_GRID| Information for grid number                                          8
 PW_GRID| Grid distributed over                                    40 processors
 PW_GRID| Real space group dimensions                                     5    8
 PW_GRID| the grid is blocked:                                                NO
 PW_GRID| Cutoff [a.u.]                                                      0.1
 PW_GRID| spherical cutoff:                                                   NO
 PW_GRID|   Bounds   1             -2       2                Points:           5
 PW_GRID|   Bounds   2             -2       2                Points:           5
 PW_GRID|   Bounds   3             -2       2                Points:           5
 PW_GRID| Volume element (a.u.^3)   154.8         Volume (a.u.^3)     19349.8300
 PW_GRID| Grid span                                                    FULLSPACE
 PW_GRID|   Distribution                         Average         Max         Min
 PW_GRID|   G-Vectors                                3.1          10           0
 PW_GRID|   G-Rays                                   0.6           2           0
 PW_GRID|   Real Space Points                        3.1           5           0

 PW_GRID| Information for grid number                                          9
 PW_GRID| Grid distributed over                                    40 processors
 PW_GRID| Real space group dimensions                                     5    8
 PW_GRID| the grid is blocked:                                                NO
 PW_GRID| Cutoff [a.u.]                                                      0.0
 PW_GRID| spherical cutoff:                                                   NO
 PW_GRID|   Bounds   1             -1       1                Points:           3
 PW_GRID|   Bounds   2             -1       1                Points:           3
 PW_GRID|   Bounds   3             -1       1                Points:           3
 PW_GRID| Volume element (a.u.^3)   716.7         Volume (a.u.^3)     19349.8300
 PW_GRID| Grid span                                                    FULLSPACE
 PW_GRID|   Distribution                         Average         Max         Min
 PW_GRID|   G-Vectors                                0.7           3           0
 PW_GRID|   G-Rays                                   0.2           1           0
 PW_GRID|   Real Space Points                        0.7           3           0

 PW_GRID| Information for grid number                                         10
 PW_GRID| Grid distributed over                                    40 processors
 PW_GRID| Real space group dimensions                                     5    8
 PW_GRID| the grid is blocked:                                                NO
 PW_GRID| Cutoff [a.u.]                                                      0.0
 PW_GRID| spherical cutoff:                                                   NO
 PW_GRID|   Bounds   1              0       0                Points:           1
 PW_GRID|   Bounds   2              0       0                Points:           1
 PW_GRID|   Bounds   3              0       0                Points:           1
 PW_GRID| Volume element (a.u.^3)  0.1935E+05     Volume (a.u.^3)     19349.8300
 PW_GRID| Grid span                                                    FULLSPACE
 PW_GRID|   Distribution                         Average         Max         Min
 PW_GRID|   G-Vectors                                0.0           1           0
 PW_GRID|   G-Rays                                   0.0           1           0
 PW_GRID|   Real Space Points                        0.0           1           0

 POISSON| Solver                                                        PERIODIC
 POISSON| Periodicity                                                        XYZ

 RS_GRID| Information for grid number                                          1
 RS_GRID|   Bounds   1           -108     107                Points:         216
 RS_GRID|   Bounds   2           -108     107                Points:         216
 RS_GRID|   Bounds   3           -115     115                Points:         231
 RS_GRID| Real space distribution over                                  5 groups
 RS_GRID| Real space distribution along direction                              2
 RS_GRID| Border size                                                         27
 RS_GRID| Real space distribution over                                  8 groups
 RS_GRID| Real space distribution along direction                              3
 RS_GRID| Border size                                                         27
 RS_GRID|   Distribution                         Average         Max         Min
 RS_GRID|   Planes                                  97.2          98          97
 RS_GRID|   Distribution                         Average         Max         Min
 RS_GRID|   Planes                                  82.9          83          82

 RS_GRID| Information for grid number                                          2
 RS_GRID|   Bounds   1            -63      62                Points:         126
 RS_GRID|   Bounds   2            -63      62                Points:         126
 RS_GRID|   Bounds   3            -66      65                Points:         132
 RS_GRID| Real space distribution over                                  5 groups
 RS_GRID| Real space distribution along direction                              2
 RS_GRID| Border size                                                         26
 RS_GRID| Real space distribution over                                  8 groups
 RS_GRID| Real space distribution along direction                              3
 RS_GRID| Border size                                                         26
 RS_GRID|   Distribution                         Average         Max         Min
 RS_GRID|   Planes                                  77.2          78          77
 RS_GRID|   Distribution                         Average         Max         Min
 RS_GRID|   Planes                                  68.5          69          68

 RS_GRID| Information for grid number                                          3
 RS_GRID|   Bounds   1            -36      35                Points:          72
 RS_GRID|   Bounds   2            -36      35                Points:          72
 RS_GRID|   Bounds   3            -38      38                Points:          77
 RS_GRID| Real space fully replicated
 RS_GRID| Group size                                                           1

 RS_GRID| Information for grid number                                          4
 RS_GRID|   Bounds   1            -21      20                Points:          42
 RS_GRID|   Bounds   2            -21      20                Points:          42
 RS_GRID|   Bounds   3            -22      21                Points:          44
 RS_GRID| Real space fully replicated
 RS_GRID| Group size                                                           1

 RS_GRID| Information for grid number                                          5
 RS_GRID|   Bounds   1            -12      11                Points:          24
 RS_GRID|   Bounds   2            -12      11                Points:          24
 RS_GRID|   Bounds   3            -12      12                Points:          25
 RS_GRID| Real space fully replicated
 RS_GRID| Group size                                                           1

 RS_GRID| Information for grid number                                          6
 RS_GRID|   Bounds   1             -7       6                Points:          14
 RS_GRID|   Bounds   2             -7       6                Points:          14
 RS_GRID|   Bounds   3             -7       7                Points:          15
 RS_GRID| Real space fully replicated
 RS_GRID| Group size                                                           1

 RS_GRID| Information for grid number                                          7
 RS_GRID|   Bounds   1             -3       3                Points:           7
 RS_GRID|   Bounds   2             -3       3                Points:           7
 RS_GRID|   Bounds   3             -4       4                Points:           9
 RS_GRID| Real space fully replicated
 RS_GRID| Group size                                                           1

 RS_GRID| Information for grid number                                          8
 RS_GRID|   Bounds   1             -2       2                Points:           5
 RS_GRID|   Bounds   2             -2       2                Points:           5
 RS_GRID|   Bounds   3             -2       2                Points:           5
 RS_GRID| Real space fully replicated
 RS_GRID| Group size                                                           1

 RS_GRID| Information for grid number                                          9
 RS_GRID|   Bounds   1             -1       1                Points:           3
 RS_GRID|   Bounds   2             -1       1                Points:           3
 RS_GRID|   Bounds   3             -1       1                Points:           3
 RS_GRID| Real space fully replicated
 RS_GRID| Group size                                                           1

 RS_GRID| Information for grid number                                         10
 RS_GRID|   Bounds   1              0       0                Points:           1
 RS_GRID|   Bounds   2              0       0                Points:           1
 RS_GRID|   Bounds   3              0       0                Points:           1
 RS_GRID| Real space fully replicated
 RS_GRID| Group size                                                           1

 *******************************************************************************
 ***                     STARTING GEOMETRY OPTIMIZATION                      ***
 ***                           CONJUGATE GRADIENTS                           ***
 *******************************************************************************

 Spin 1

 Number of electrons:                                                       1081
 Number of occupied orbitals:                                               1081
 Number of molecular orbitals:                                              1081

 Spin 2

 Number of electrons:                                                       1080
 Number of occupied orbitals:                                               1080
 Number of molecular orbitals:                                              1080

 Number of orbital functions:                                               1620
 Number of independent orbital functions:                                   1620

 Extrapolation method: initial_guess


 SCF WAVEFUNCTION OPTIMIZATION

  Step     Update method      Time    Convergence         Total energy    Change
  ------------------------------------------------------------------------------
     1 NoMix/Diag. 0.40E+00    5.9     0.00001291     -8111.7738810618 -8.11E+03
     2 Broy./Diag. 0.40E+00    9.8     0.00001217     -8111.7737775765  1.03E-04
     3 Broy./Diag. 0.40E+00    9.7     0.00000330     -8111.7738271805 -4.96E-05

  *** SCF run converged in     3 steps ***


  Electronic density on regular grids:      -2160.9999999994        0.0000000006
  Core density on regular grids:             2159.9999999994       -0.0000000006
  Total charge density on r-space grids:       -1.0000000001
  Total charge density g-space grids:          -1.0000000001

  Overlap energy of the core charge distribution:               0.00000000000202
  Self energy of the core charge distribution:             -17095.63438313942970
  Core Hamiltonian energy:                                   4650.71246599149708
  Hartree energy:                                            5621.28976365108065
  Exchange-correlation energy:                              -1307.28558348491379

  DFT+U energy:                                                19.14390980124706

  Total energy:                                             -8111.77382718051558

  outer SCF iter =    1 RMS gradient =   0.33E-05 energy =      -8111.7738271805
  outer SCF loop converged in   1 iterations or    3 steps


  Integrated absolute spin density  :                               1.0916899807
  Ideal and single determinant S**2 :                    0.750000       0.755039

 !-----------------------------------------------------------------------------!
                     Mulliken Population Analysis

 #  Atom  Element  Kind  Atomic population (alpha,beta) Net charge  Spin moment
       1     Ti       1         5.244348     5.244351     1.511301    -0.000003
       2     Ti       1         5.245233     5.245230     1.509537     0.000003
       3     Ti       1         5.244741     5.244744     1.510515    -0.000002
       4     Ti       1         5.246261     5.245776     1.507963     0.000485
       5     Ti       1         5.244391     5.244392     1.511217    -0.000001
       6     Ti       1         5.245251     5.245248     1.509500     0.000003
       7     Ti       1         5.244339     5.244342     1.511319    -0.000003
       8     Ti       1         5.245358     5.245374     1.509268    -0.000015
       9     Ti       1         5.244391     5.244392     1.511216    -0.000001
      10     Ti       1         5.245252     5.245249     1.509500     0.000003
      11     Ti       1         5.244768     5.244770     1.510462    -0.000002
      12     Ti       1         5.245645     5.245655     1.508700    -0.000009
      13     Ti       1         5.244642     5.244650     1.510708    -0.000008
      14     Ti       1         5.245651     5.245660     1.508689    -0.000009
      15     Ti       1         5.244348     5.244351     1.511300    -0.000003
      16     Ti       1         5.245234     5.245230     1.509536     0.000003
      17     Ti       1         5.244339     5.244342     1.511318    -0.000003
      18     Ti       1         5.245359     5.245374     1.509268    -0.000015
      19     Ti       1         5.244330     5.244336     1.511334    -0.000006
      20     Ti       1         5.245220     5.245229     1.509550    -0.000009
      21     Ti       1         5.244612     5.244783     1.510605    -0.000172
      22     Ti       1         5.244417     5.249437     1.506146    -0.005020
      23     Ti       1         5.244557     5.244566     1.510876    -0.000009
      24     Ti       1         5.245088     5.245097     1.509815    -0.000009
      25     Ti       1         5.244351     5.244357     1.511292    -0.000006
      26     Ti       1         5.245334     5.245324     1.509343     0.000010
      27     Ti       1         5.244557     5.244566     1.510877    -0.000009
      28     Ti       1         5.245090     5.245099     1.509811    -0.000009
      29     Ti       1         5.244640     5.244810     1.510550    -0.000170
      30     Ti       1         5.245297     5.245089     1.509614     0.000208
      31     Ti       1         5.244747     5.244734     1.510519     0.000014
      32     Ti       1         5.245304     5.245096     1.509600     0.000209
      33     Ti       1         5.244330     5.244336     1.511334    -0.000006
      34     Ti       1         5.245223     5.245232     1.509545    -0.000009
      35     Ti       1         5.244351     5.244357     1.511291    -0.000006
      36     Ti       1         5.245333     5.245323     1.509343     0.000010
      37     Ti       1         5.244258     5.244256     1.511487     0.000002
      38     Ti       1         5.245893     5.245911     1.508197    -0.000018
      39     Ti       1         5.247636     5.244002     1.508363     0.003634
      40     Ti       1         5.788419     4.785829     1.425752     1.002590
      41     Ti       1         5.246742     5.245527     1.507731     0.001215
      42     Ti       1         5.245192     5.245211     1.509597    -0.000019
      43     Ti       1         5.244341     5.244339     1.511320     0.000003
      44     Ti       1         5.244971     5.244857     1.510172     0.000114
      45     Ti       1         5.246741     5.245526     1.507733     0.001215
      46     Ti       1         5.245189     5.245208     1.509603    -0.000019
      47     Ti       1         5.247536     5.243904     1.508560     0.003633
      48     Ti       1         5.247152     5.246060     1.506788     0.001092
      49     Ti       1         5.244806     5.244539     1.510655     0.000268
      50     Ti       1         5.247193     5.246101     1.506706     0.001093
      51     Ti       1         5.244258     5.244256     1.511486     0.000002
      52     Ti       1         5.245890     5.245908     1.508202    -0.000018
      53     Ti       1         5.244341     5.244339     1.511320     0.000003
      54     Ti       1         5.244971     5.244857     1.510172     0.000114
      55     Ti       1         5.244258     5.244256     1.511486     0.000002
      56     Ti       1         5.245220     5.245229     1.509550    -0.000009
      57     Ti       1         5.247636     5.244001     1.508363     0.003635
      58     Ti       1         5.244415     5.249433     1.506153    -0.005018
      59     Ti       1         5.246741     5.245526     1.507733     0.001215
      60     Ti       1         5.245088     5.245097     1.509815    -0.000009
      61     Ti       1         5.244341     5.244339     1.511320     0.000003
      62     Ti       1         5.245333     5.245323     1.509343     0.000010
      63     Ti       1         5.246740     5.245525     1.507735     0.001215
      64     Ti       1         5.245090     5.245099     1.509811    -0.000009
      65     Ti       1         5.247536     5.243903     1.508561     0.003634
      66     Ti       1         5.245297     5.245089     1.509614     0.000208
      67     Ti       1         5.244806     5.244539     1.510655     0.000268
      68     Ti       1         5.245304     5.245095     1.509601     0.000209
      69     Ti       1         5.244258     5.244256     1.511485     0.000002
      70     Ti       1         5.245223     5.245232     1.509545    -0.000009
      71     Ti       1         5.244341     5.244339     1.511320     0.000003
      72     Ti       1         5.245333     5.245323     1.509344     0.000010
      73     Ti       1         5.244330     5.244336     1.511334    -0.000006
      74     Ti       1         5.245233     5.245230     1.509537     0.000003
      75     Ti       1         5.244612     5.244784     1.510604    -0.000172
      76     Ti       1         5.246259     5.245775     1.507966     0.000485
      77     Ti       1         5.244557     5.244566     1.510878    -0.000009
      78     Ti       1         5.245251     5.245248     1.509500     0.000003
      79     Ti       1         5.244351     5.244357     1.511292    -0.000006
      80     Ti       1         5.245358     5.245373     1.509268    -0.000015
      81     Ti       1         5.244556     5.244565     1.510879    -0.000009
      82     Ti       1         5.245252     5.245248     1.509500     0.000003
      83     Ti       1         5.244641     5.244811     1.510549    -0.000170
      84     Ti       1         5.245645     5.245655     1.508700    -0.000009
      85     Ti       1         5.244747     5.244733     1.510520     0.000014
      86     Ti       1         5.245651     5.245660     1.508689    -0.000009
      87     Ti       1         5.244330     5.244336     1.511334    -0.000006
      88     Ti       1         5.245233     5.245230     1.509537     0.000003
      89     Ti       1         5.244351     5.244357     1.511292    -0.000006
      90     Ti       1         5.245358     5.245374     1.509268    -0.000015
      91     O        2         3.379635     3.379632    -0.759267     0.000003
      92     O        2         3.379734     3.379736    -0.759469    -0.000002
      93     O        2         3.379900     3.379903    -0.759802    -0.000003
      94     O        2         3.379735     3.379733    -0.759469     0.000002
      95     O        2         3.380862     3.380919    -0.761781    -0.000057
      96     O        2         3.380862     3.380919    -0.761782    -0.000057
      97     O        2         3.379720     3.379763    -0.759483    -0.000043
      98     O        2         3.379720     3.379762    -0.759482    -0.000043
      99     O        2         3.379731     3.379733    -0.759463    -0.000002
     100     O        2         3.379656     3.379653    -0.759309     0.000003
     101     O        2         3.379739     3.379737    -0.759476     0.000002
     102     O        2         3.379913     3.379916    -0.759828    -0.000003
     103     O        2         3.379633     3.379627    -0.759260     0.000006
     104     O        2         3.379626     3.379620    -0.759246     0.000006
     105     O        2         3.380085     3.380086    -0.760171    -0.000001
     106     O        2         3.380405     3.380395    -0.760800     0.000011
     107     O        2         3.379731     3.379733    -0.759464    -0.000002
     108     O        2         3.379656     3.379653    -0.759309     0.000003
     109     O        2         3.379913     3.379916    -0.759828    -0.000003
     110     O        2         3.379739     3.379737    -0.759476     0.000002
     111     O        2         3.379574     3.379576    -0.759150    -0.000002
     112     O        2         3.380094     3.380094    -0.760188    -0.000000
[...]
       0.25505075       0.25508312       0.25553379       0.25573976
       0.25615777       0.25647493       0.25662366       0.25736438
       0.25760182       0.25810980       0.25831369       0.25985671
       0.26072690       0.26078810       0.26082009       0.26084081
       0.26107472       0.26110094       0.26110215       0.26171027
       0.26173112       0.26192781       0.26195775       0.26211936
       0.26218875       0.26224001       0.26226156       0.26290823
       0.26295969       0.26309213       0.26362759       0.26416832
       0.26430458       0.26431728       0.26437476       0.26443250
       0.26449499       0.26468007       0.26469949       0.26482806
       0.26500262       0.26525330       0.26538145       0.26559414
       0.26698918       0.26717575       0.26718939       0.26739422
       0.26743889       0.26786468       0.26824373       0.26995600
       0.27390288       0.27394728       0.27404037       0.27441963
       0.27450355       0.27452485       0.27473452       0.27473642
       0.27907934       0.27928584       0.27933105       0.27933718
       0.27957853       0.27966536       0.27968658       0.28072845
       0.28082508       0.28101881       0.28111993       0.28121374
       0.28128351       0.28132555       0.28142614       0.28143158
       0.28172377       0.28175543       0.28212007       0.28226371
       0.28287249       0.28288388       0.28299050       0.28301728
       0.28306282       0.28309502       0.28363607       0.28382561
       0.28401330       0.28409878       0.28439312       0.28444132
       0.28448660       0.28469550       0.28471775       0.28482478
       0.28501987       0.28505397       0.28507449       0.28541661
       0.28555617       0.28561325       0.28569493       0.28570396
       0.28611182       0.28648948       0.28655058       0.28666711
       0.28684138       0.28694293       0.28845531       0.28903893
       0.28943901       0.28945571       0.29135749       0.29166236
       0.29223333       0.29346151       0.29358488       0.29387676
       0.29459547       0.29516206       0.29521025       0.29521796
       0.29556443       0.29558518       0.29598139       0.29601439
       0.29647165       0.29667661       0.30028400       0.30029683
       0.30035140       0.30055778       0.30057399       0.30060301
       0.30065269       0.30079818       0.30082007       0.30095795
       0.30139540       0.30151208       0.30180656       0.30212960
       0.30237632       0.30303071       0.30474922       0.30481872
       0.30482569       0.30486244       0.30535562       0.30545424
       0.30549912       0.30605281       0.30936716       0.30972478
       0.30991009       0.31020741       0.31228150       0.31248398
       0.31260557       0.31263851       0.31269425       0.31278753
       0.31290389       0.31301812       0.31433738       0.31618417
       0.31635533       0.31674577       0.31688835       0.32038089
       0.32050481       0.32057421       0.32079519       0.32094612
       0.32110691       0.32141193       0.32156441       0.32568944
       0.32585470       0.32627700       0.32657713       0.32738751
       0.32742686       0.33145949       0.33199683       0.34061422
 Fermi Energy [eV] :    9.268584
  
  Lowest eigenvalues of the unoccupied subspace spin            1
 ---------------------------------------------

  
  Lowest eigenvalues of the unoccupied subspace spin            2
 ---------------------------------------------


 ENERGY| Total FORCE_EVAL ( QS ) energy (a.u.):            -8111.778733333617311


 -------------------------------------------------------------------------------
 -                                                                             -
 -                                DBCSR STATISTICS                             -
 -                                                                             -
 -------------------------------------------------------------------------------
 COUNTER                                    TOTAL       BLAS       SMM       ACC
 flops     4 x    25 x     4             51840000     100.0%      0.0%      0.0%
 flops    10 x    25 x     4             64800000     100.0%      0.0%      0.0%
 flops     4 x    25 x    10             64800000     100.0%      0.0%      0.0%
 flops    10 x    25 x    10             81000000     100.0%      0.0%      0.0%
 flops     4 x    24 x     4            124416000     100.0%      0.0%      0.0%
 flops    10 x    24 x     4            155520000     100.0%      0.0%      0.0%
 flops     4 x    24 x    10            155520000     100.0%      0.0%      0.0%
 flops    10 x    24 x    10            194400000     100.0%      0.0%      0.0%
 flops     4 x     4 x    56            817367040     100.0%      0.0%      0.0%
 flops     4 x     4 x    57            831962880     100.0%      0.0%      0.0%
 flops    10 x     4 x    56           1016064000     100.0%      0.0%      0.0%
 flops     4 x    10 x    56           1016064000     100.0%      0.0%      0.0%
 flops    10 x     4 x    57           1034208000     100.0%      0.0%      0.0%
 flops     4 x    10 x    57           1034208000     100.0%      0.0%      0.0%
 flops    10 x    10 x    56           1284192000     100.0%      0.0%      0.0%
 flops    10 x    10 x    57           1307124000     100.0%      0.0%      0.0%
 flops     4 x     4 x    32           5604802560     100.0%      0.0%      0.0%
 flops    10 x     4 x    32           6967296000     100.0%      0.0%      0.0%
 flops     4 x    10 x    32           6967296000     100.0%      0.0%      0.0%
 flops     4 x    32 x     4           7664025600     100.0%      0.0%      0.0%
 flops    10 x    10 x    32           8805888000     100.0%      0.0%      0.0%
 flops    10 x    32 x     4           9580032000     100.0%      0.0%      0.0%
 flops     4 x    32 x    10           9580032000     100.0%      0.0%      0.0%
 flops    10 x    32 x    10          11975040000     100.0%      0.0%      0.0%
 flops     4 x     4 x    64          24287477760     100.0%      0.0%      0.0%
 flops    10 x     4 x    64          30191616000     100.0%      0.0%      0.0%
 flops     4 x    10 x    64          30191616000     100.0%      0.0%      0.0%
 flops    10 x    10 x    64          38158848000     100.0%      0.0%      0.0%
 flops inhomo. stacks                           0       0.0%      0.0%      0.0%
 flops total                       199.207456E+09     100.0%      0.0%      0.0%
 flops max/rank                      5.363849E+09     100.0%      0.0%      0.0%
 matmuls inhomo. stacks                         0       0.0%      0.0%      0.0%
 matmuls total                           58325400     100.0%      0.0%      0.0%
 number of processed stacks                209440     100.0%      0.0%      0.0%
 average stack size                                   278.5       0.0       0.0
 marketing flops                   357.285626E+09
 -------------------------------------------------------------------------------
 # multiplications                             63
 max memory usage/rank             443.170816E+06
 # max total images/rank                        5
 # max 3D layers                                1
 # MPI messages exchanged                  158760
 MPI messages size (bytes):
  total size                        16.320035E+09
  min size                          40.960000E+03
  max size                         280.704000E+03
  average size                     102.796891E+03
 MPI breakdown and total messages size (bytes):
             size <=      128                   0                        0
       128 < size <=     8192                   0                        0
      8192 < size <=    32768                   0                        0
     32768 < size <=   131072              125496               9193798080
    131072 < size <=  4194304               33264               7126237440
   4194304 < size <= 16777216                   0                        0
  16777216 < size                               0                        0
 -------------------------------------------------------------------------------

 *** WARNING in dbcsr/mm/dbcsr_mm.F:268 :: Using a non-square number of ***
 *** MPI ranks might lead to poor performance.                          ***
 *** Used ranks: 40                                                     ***
 *** Suggested: 36 81                                                   ***

 -------------------------------------------------------------------------------

 MEMORY| Estimated peak process memory [MiB]                                 424

 -------------------------------------------------------------------------------
 ----                             MULTIGRID INFO                            ----
 -------------------------------------------------------------------------------
 count for grid        1:        2027506          cutoff [a.u.]          325.00
 count for grid        2:        1267092          cutoff [a.u.]          108.33
 count for grid        3:        2192886          cutoff [a.u.]           36.11
 count for grid        4:        3062428          cutoff [a.u.]           12.04
 count for grid        5:        1632404          cutoff [a.u.]            4.01
 count for grid        6:              0          cutoff [a.u.]            1.34
 count for grid        7:              0          cutoff [a.u.]            0.45
 count for grid        8:              0          cutoff [a.u.]            0.15
 count for grid        9:              0          cutoff [a.u.]            0.05
 count for grid       10:              0          cutoff [a.u.]            0.02
 total gridlevel count  :       10182316

 -------------------------------------------------------------------------------
 -                                                                             -
 -                         MESSAGE PASSING PERFORMANCE                         -
 -                                                                             -
 -------------------------------------------------------------------------------

 ROUTINE             CALLS      AVE VOLUME [Bytes]
 MP_Group               67
 MP_Bcast             2347                 167795.
 MP_Allreduce         1290                    987.
 MP_Sync               872
 MP_Alltoall          3154                2859513.
 MP_ISendRecv        31824                  15276.
 MP_Wait             49546
 MP_comm_split          46
 MP_ISend            20218                 129445.
 MP_IRecv            20132                 129189.
 MP_Recv               198                 414720.
 MP_Memory            9818
 -------------------------------------------------------------------------------


 -------------------------------------------------------------------------------
 -                                                                             -
 -                           R E F E R E N C E S                               -
 -                                                                             -
 -------------------------------------------------------------------------------
 
 CP2K version 6.1, the CP2K developers group (2018).
 CP2K is freely available from https://www.cp2k.org/ .

 Schuett, Ole; Messmer, Peter; Hutter, Juerg; VandeVondele, Joost. 
 Electronic Structure Calculations on Graphics Processing Units, John Wiley & Sons, Ltd, 173-190 (2016). 
 GPU-Accelerated Sparse Matrix-Matrix Multiplication for Linear Scaling Density Functional Theory.
 http://dx.doi.org/10.1002/9781118670712.ch8


 Borstnik, U; VandeVondele, J; Weber, V; Hutter, J. 
 PARALLEL COMPUTING, 40 (5-6), 47-58 (2014). 
 Sparse matrix multiplication: The distributed block-compressed sparse
 row library.
 http://dx.doi.org/10.1016/j.parco.2014.03.012


 Hutter, J; Iannuzzi, M; Schiffmann, F; VandeVondele, J. 
 WILEY INTERDISCIPLINARY REVIEWS-COMPUTATIONAL MOLECULAR SCIENCE, 4 (1), 15-25 (2014). 
 CP2K: atomistic simulations of condensed matter systems.
 http://dx.doi.org/10.1002/wcms.1159


 VandeVondele, J; Hutter, J. 
 JOURNAL OF CHEMICAL PHYSICS, 127 (11), 114105 (2007). 
 Gaussian basis sets for accurate calculations on molecular systems in
 gas and condensed phases.
 http://dx.doi.org/10.1063/1.2770708


 Krack, M. 
 THEORETICAL CHEMISTRY ACCOUNTS, 114 (1-3), 145-152 (2005). 
 Pseudopotentials for H to Kr optimized for gradient-corrected
 exchange-correlation functionals.
 http://dx.doi.org/10.1007/s00214-005-0655-y


 VandeVondele, J; Krack, M; Mohamed, F; Parrinello, M; Chassaing, T;
 Hutter, J. COMPUTER PHYSICS COMMUNICATIONS, 167 (2), 103-128 (2005). 
 QUICKSTEP: Fast and accurate density functional calculations using a
 mixed Gaussian and plane waves approach.
 http://dx.doi.org/10.1016/j.cpc.2004.12.014


 Frigo, M; Johnson, SG. 
 PROCEEDINGS OF THE IEEE, 93 (2), 216-231 (2005). 
 The design and implementation of FFTW3.
 http://dx.doi.org/10.1109/JPROC.2004.840301


 Kolafa, J. 
 JOURNAL OF COMPUTATIONAL CHEMISTRY, 25 (3), 335-342 (2004). 
 Time-reversible always stable predictor-corrector method for molecular dynamics of polarizable molecules.
 http://dx.doi.org/10.1002/jcc.10385


 Hartwigsen, C; Goedecker, S; Hutter, J. 
 PHYSICAL REVIEW B, 58 (7), 3641-3662 (1998). 
 Relativistic separable dual-space Gaussian pseudopotentials from H to Rn.
 http://dx.doi.org/10.1103/PhysRevB.58.3641


 Dudarev, SL; Botton, GA; Savrasov, SY; Humphreys, CJ; Sutton, AP. 
 PHYSICAL REVIEW B, 57 (3), 1505-1509 (1998). 
 Electron-energy-loss spectra and the structural stability of
 nickel oxide: An LSDA+U study.
 http://dx.doi.org/10.1103/PhysRevB.57.1505


 Lippert, G; Hutter, J; Parrinello, M. 
 MOLECULAR PHYSICS, 92 (3), 477-487 (1997). 
 A hybrid Gaussian and plane wave density functional scheme.
 http://dx.doi.org/10.1080/002689797170220


 Dudarev, SL; Manh, DN; Sutton, AP. 
 PHILOSOPHICAL MAGAZINE B, 75 (5), 613-628 (1997). 
 Effect of Mott-Hubbard correlations on the electronic
 structure and structural stability of uranium dioxide.
 http://dx.doi.org/10.1080/13642819708202343


 Perdew, JP; Burke, K; Ernzerhof, M. 
 PHYSICAL REVIEW LETTERS, 77 (18), 3865-3868 (1996). 
 Generalized gradient approximation made simple.
 http://dx.doi.org/10.1103/PhysRevLett.77.3865


 Goedecker, S; Teter, M; Hutter, J. 
 PHYSICAL REVIEW B, 54 (3), 1703-1710 (1996). 
 Separable dual-space Gaussian pseudopotentials.
 http://dx.doi.org/10.1103/PhysRevB.54.1703


 -------------------------------------------------------------------------------
 -                                                                             -
 -                                T I M I N G                                  -
 -                                                                             -
 -------------------------------------------------------------------------------
 SUBROUTINE                       CALLS  ASD         SELF TIME        TOTAL TIME
                                MAXIMUM       AVERAGE  MAXIMUM  AVERAGE  MAXIMUM
 CP2K                                 1  1.0    0.031    0.037  309.613  309.614
 cp_geo_opt                           1  2.0    0.000    0.000  309.304  309.307
 geoopt_cg                            1  3.0    0.000    0.000  309.304  309.307
 cp_cg_main                           1  4.0    0.000    0.000  309.304  309.307
 cp_eval_at                           3  5.7    0.000    0.001  309.279  309.280
 qs_energies                          3  7.3    0.000    0.002  263.773  263.775
 qs_forces                            2  7.0    0.001    0.001  228.101  228.101
 scf_env_do_scf                       3  8.3    0.000    0.000  224.878  225.601
 scf_env_do_scf_inner_loop           23  9.4    0.001    0.003  224.877  225.601
 rebuild_ks_matrix                   25 11.2    0.000    0.000  133.914  133.959
 qs_ks_build_kohn_sham_matrix        25 12.2    0.123    0.168  133.914  133.959
 cg_linmin                            1  5.0    0.000    0.000  114.041  114.041
 linmin_2pnt                          1  6.0    0.000    0.000  114.041  114.041
 qs_ks_update_qs_env                 23 10.4    0.001    0.001  113.859  113.913
 sum_up_and_integrate                25 13.2    0.053    0.063  104.762  104.778
 integrate_v_rspace                  50 14.2   94.734   97.200  104.709  104.739
 qs_rho_update_rho                   26 10.5    0.000    0.000   99.887   99.895
 calculate_rho_elec                  52 11.5   87.948   90.136   99.886   99.895
 pw_transfer                       1540 14.8    0.069    0.079   31.898   33.177
 fft_wrap_pw1pw2                   1490 15.8    0.011    0.013   31.717   33.018
 fft_wrap_pw1pw2_330                572 16.9    1.517    1.833   30.505   31.630
 fft3d_ps                          1490 17.8   14.008   15.710   26.511   28.815
 qs_vxc_create                       25 13.2    0.000    0.001   26.815   26.911
 xc_vxc_pw_create                    25 14.2    1.103    1.307   26.814   26.910
 build_core_hamiltonian_matrix_       2  8.0    0.000    0.000   23.401   25.397
 qs_energies_init_hamiltonians        3  8.3    0.000    0.000   24.395   24.395
 build_core_hamiltonian_matrix        3  9.3    0.000    0.000   21.226   23.104
 qs_ks_update_qs_env_forces           2  8.0    0.000    0.000   20.101   20.101
 qs_scf_new_mos                      23 10.4    0.001    0.002   18.158   18.225
 eigensolver                         46 11.4    0.003    0.004   17.063   17.072
 xc_rho_set_and_dset_create          25 15.2    0.153    0.182   13.796   14.790
 mp_alltoall_z22v                  1490 19.8   10.547   14.448   10.547   14.448
 rs_pw_transfer                    1034 14.8    0.008    0.010   10.722   14.287
 build_core_ppnl                      3 10.3   13.010   14.177   13.010   14.177
 density_rs2pw                       52 12.5    0.004    0.004   10.843   13.525
 cp_fm_syevd                         46 12.4    0.000    0.001   13.483   13.495
 cp_fm_redistribute_end              46 13.4    4.071   13.377    4.092   13.393
 cp_fm_syevd_base                    46 13.4    9.250   13.234    9.250   13.234
 init_scf_run                         3  8.3    0.000    0.000   12.769   12.779
 build_core_ppl_forces                2  9.0   11.270   12.753   11.272   12.754
 scf_env_initial_rho_setup            3  9.3    0.000    0.000   12.704   12.714
 build_core_ppnl_forces               2  9.0   10.904   11.951   10.906   11.953
 mp_waitany                       10000 16.6    6.218   10.125    6.218   10.125
 rs_pw_transfer_RS2PW_330            58 14.3    0.863    1.126    6.007    9.508
 build_core_ppl                       3 10.3    7.660    9.096    7.660    9.096
 yz_to_x                            411 18.4    0.623    0.721    6.019    8.365
 wfi_extrapolate                      3 10.3    0.000    0.000    8.135    8.136
 x_to_yz                            467 19.2    1.253    1.507    6.398    7.516
 potential_pw2rs                     50 15.2    0.008    0.009    6.552    6.581
 rs_distribute_matrix               106 13.8    0.250    0.295    3.695    6.362
 mp_alltoall_d11v                   646 14.4    3.602    6.305    3.602    6.305
 -------------------------------------------------------------------------------

 The number of warnings for this run is : 1
 
 -------------------------------------------------------------------------------
  **** **** ******  **  PROGRAM ENDED AT                 2019-08-02 10:14:43.426
 ***** ** ***  *** **   PROGRAM RAN ON            cpn-p28-06.cbls.ccr.buffalo.ed
 **    ****   ******    PROGRAM RAN BY                                  pavankum
 ***** **    ** ** **   PROGRAM PROCESS ID                                 23879
  **** **  *******  **  PROGRAM STOPPED IN /projects/academic/mdupuis2/pavan/VAB
                                           _calculation/results_for_paper/7.TiO2
                                           _pbe_plus_U10/gopt_state0
