     270
 i =        1, E =     -8111.7760052847
 Ti         0.0007168456       -0.0001969691        0.0000655748
 Ti         2.3124717206        2.3111407770        1.4913147498
 Ti         4.6314290367        0.0084127114        0.0000603675
 Ti         6.9345978794        2.3115915490        1.5064787431
 Ti         9.2451985832        0.0010335723        0.0000582342
 Ti        11.5568338929        2.3122079066        1.4911924414
 Ti        -0.0005052090        4.6233978446        0.0000655058
 Ti         2.3111593512        6.9350621153        1.4906742394
 Ti         4.6240404915        4.6221940654        0.0000582287
 Ti         6.9352051896        6.9338290603        1.4911931282
 Ti         9.2377515435        4.6147520861        0.0000603726
 Ti        11.5553486651        6.9323381211        1.4915930893
 Ti         0.0000503927        9.2460464760        0.0000607856
 Ti         2.3137970270       11.5597946422        1.4916216468
 Ti         4.6228085618        9.2467151655        0.0000656403
 Ti         6.9341491904       11.5584662270        1.4913170874
 Ti         9.2463998869        9.2454849099        0.0000655646
 Ti        11.5580658013       11.5571537031        1.4906739281
 Ti        -0.0014125557        0.0004305060        2.9817370962
 Ti         2.3106017842        2.3058829156        4.4723101938
 Ti         4.6266190926        0.0036115149        2.9823668837
 Ti         6.9346896025        2.3116822659        4.5081342870
 Ti         9.2489820075       -0.0019323286        2.9858218038
 Ti        11.5596558938        2.3186301962        4.4719158883
 Ti         0.0018998579        4.6230350614        2.9816588760
 Ti         2.3128842126        6.9340693051        4.4726547663
 Ti         4.6210713043        4.6259639094        2.9858197150
 Ti         6.9416348018        6.9366664971        4.4719098876
 Ti         9.2425471741        4.6195439879        2.9823827620
 Ti        11.5555401000        6.9325165665        4.4760137145
 Ti         0.0000809071        9.2460736829        2.9838062148
 Ti         2.3138497722       11.5598421906        4.4760995430
 Ti         4.6234311081        9.2445824708        2.9817355377
 Ti         6.9289075581       11.5565489795        4.4723057130
 Ti         9.2460520797        9.2478855169        2.9816526805
 Ti        11.5571000105       11.5588860626        4.4726535484
 Ti        -0.0004302412       -0.0013493311        5.9621119643
 Ti         2.3103641868        2.3150405310        7.4536127280
 Ti         4.6371693441        0.0140574782        5.9616872957
 Ti         6.9343976973        2.3113807561        7.4535216697
 Ti         9.2462236668        0.0046591549        5.9687777479
 Ti        11.5600072339        2.3093558727        7.4536124854
 Ti         0.0015841465        4.6254053093        5.9622885886
 Ti         2.3141929088        6.9373794691        7.4536130420
 Ti         4.6276923901        4.6232208475        5.9687804661
 Ti         6.9323396275        6.9370011567        7.4536124861
 Ti         9.2323248960        4.6093415210        5.9615706602
 Ti        11.5493901124        6.9263577785        7.4536128880
 Ti         0.0001791864        9.2461639093        5.9642777814
 Ti         2.3199420997       11.5659365588        7.4536130659
 Ti         4.6216709526        9.2455841479        5.9621107862
 Ti         6.9381598564       11.5563341532        7.4536127436
 Ti         9.2484357572        9.2475336049        5.9622830731
 Ti        11.5603518309       11.5601323170        7.4536130531
 Ti        -0.0004318934       -0.0013476393        8.9450227322
 Ti         2.3106066196        2.3058785696       10.4349180033
 Ti         4.6371846191        0.0140728536        8.9454320391
 Ti         6.9346895552        2.3116821780       10.3989303660
 Ti         9.2462145597        0.0046673868        8.9383319617
 Ti        11.5596495865        2.3186331063       10.4353114902
 Ti         0.0015855453        4.6254034110        8.9448460130
 Ti         2.3128922273        6.9340609376       10.4345718922
 Ti         4.6277006627        4.6232117390        8.9383292169
 Ti         6.9416376891        6.9366601298       10.4353175061
 Ti         9.2323096114        4.6093261987        8.9455487837
 Ti        11.5555288469        6.9325053944       10.4312035727
 Ti         0.0001790751        9.2461637645        8.9428557732
 Ti         2.3138606995       11.5598531128       10.4311178658
 Ti         4.6216726762        9.2455825421        8.9450240127
 Ti         6.9289031990       11.5565539268       10.4349225360
 Ti         9.2484337903        9.2475350895        8.9448516446
 Ti        11.5570916528       11.5588939734       10.4345731091
 Ti        -0.0014148798        0.0004307884       11.9253934290
 Ti         2.3124714368        2.3111391720       13.4159130773
 Ti         4.6266331402        0.0036256121       11.9247541621
 Ti         6.9345978315        2.3115914982       13.4006090568
 Ti         9.2489798513       -0.0019308247       11.9212921426
 Ti        11.5568338108        2.3122091073       13.4160347167
 Ti         0.0019018454        4.6230343466       11.9254715643
 Ti         2.3111591176        6.9350619989       13.4165531113
 Ti         4.6210728878        4.6259617513       11.9212941867
 Ti         6.9352063848        6.9338290298       13.4160340520
 Ti         9.2425328247        4.6195296555       11.9247383449
 Ti        11.5553478087        6.9323372753       13.4156152879
 Ti         0.0000808603        9.2460735861       11.9233147475
 Ti         2.3137977134       11.5597952991       13.4155869301
 Ti         4.6234314220        9.2445801387       11.9253950805
 Ti         6.9341475221       11.5584659051       13.4159108123
 Ti         9.2460513007        9.2478875342       11.9254778869
 Ti        11.5580656929       11.5571534075       13.4165534263
  O         1.4062368212        1.4081055227       -0.0000000363
  O         3.2153758734        3.2149697921        0.0000003384
  O         0.9028766249        3.7227245172        1.4897611942
  O         3.7181807716        0.8990518894        1.4899554422
  O         6.0285784355        1.4055716996       -0.0000001446
  O         7.8405700878        3.2175672823        0.0000000363
  O         5.5208542785        3.7254328867        1.4902408226
  O         8.3484442754        0.8978496557        1.4902420854
  O        10.6538636934        1.4082985053        0.0000003428
  O        12.4631264061        3.2152768815       -0.0000000922
  O        10.1512151508        3.7242879323        1.4898679539
  O        12.9666558143        0.9006453106        1.4897363224
  O         1.4068413949        6.0308558431        0.0000007991
  O         3.2153483685        7.8393934881        0.0000007712
  O         0.9014790063        8.3446068620        1.4897961191
  O         3.7195259258        5.5269938388        1.4894608935
  O         6.0312974568        6.0308580069        0.0000003407
  O         7.8382755096        7.8401213363       -0.0000000821
  O         5.5236418129        8.3436441383        1.4897344511
  O         8.3472848636        5.5282131271        1.4898680215
  O        10.6547700217        6.0317654797        0.0000010113
  O        12.4623822079        7.8393759974       -0.0000006637
  O        10.1457518442        8.3465961055        1.4898383464
  O        12.9696073347        5.5227395147        1.4898388364
  O         1.4067734037       10.6527732339       -0.0000006722
  O         3.2144526164       12.4604497479        0.0000010230
  O         0.8997520366       12.9695493562        1.4898476575
  O         3.7235507607       10.1457470997        1.4898485174
  O         6.0311124637       10.6522283230       -0.0000000255
  O         7.8379790928       12.4613697381        0.0000003339
  O         5.5220669438       12.9641578018        1.4899530853
  O         8.3457370035       10.1488607810        1.4897607634
  O        10.6538589287       10.6528371948        0.0000008127
  O        12.4623970621       12.4613461382        0.0000007580
  O        10.1500080731       12.9655247354        1.4894610592
  O        12.9676106752       10.1474702445        1.4897964485
  O         1.4038136033        1.4092798025        2.9783786032
  O         3.2143322661        3.2154679830        2.9810010017
  O         0.8994285919        3.7218119919        4.4715331078
  O         3.6918523368        0.8882994243        4.4662771480
  O         6.0248602773        1.4018552907        2.9716028248
  O         7.8443024518        3.2212977008        2.9715238518
  O         5.5155646668        3.7314381887        4.4687590402
  O         8.3544465548        0.8925489363        4.4687602920
  O        10.6552223578        1.4085529108        2.9806318149
  O        12.4657093390        3.2146173270        2.9779947831
  O        10.1777545820        3.7354157070        4.4659157184
  O        12.9702847601        0.9018696011        4.4714726585
  O         1.4066112464        6.0306668369        2.9800698789
  O         3.2155339782        7.8400465001        2.9797973203
  O         0.9009288006        8.3449173756        4.4706004347
  O         3.7169412291        5.5341324008        4.4697767200
  O         6.0315396569        6.0322195943        2.9806365269
  O         7.8376190765        7.8427059601        2.9779885569
  O         5.5248774099        8.3472834467        4.4714697516
  O         8.3584191887        5.5547667218        4.4659123504
  O        10.6565632488        6.0335524170        2.9779215879
  O        12.4626682569        7.8396622370        2.9804948321
  O        10.1461872493        8.3466295544        4.4711592032
  O        12.9696568076        5.5231692371        4.4711641567
  O         1.4065226857       10.6525177615        2.9805896027
  O         3.2127657871       12.4587662361        2.9778569042
  O         0.9003784173       12.9696158553        4.4708888510
  O         3.7236219001       10.1463692711        4.4708835653
  O         6.0322904769       10.6497962501        2.9783686083
  O         7.8384935320       12.4603202041        2.9810050352
  O         5.5113154958       12.9377669805        4.4662648356
  O         8.3448344302       10.1453982115        4.4715292195
  O        10.6536710837       10.6526130946        2.9800762290
  O        12.4630633168       12.4615259806        2.9797882580
  O        10.1572682269       12.9630233215        4.4697729155
  O        12.9679395260       10.1469242982        4.4706005241
  O         1.4054792026        1.4088434805        5.9657641039
  O         3.2140284757        3.2181774950        5.9618405354
  O         0.9044717414        3.7244947510        7.4535028709
  O         3.7294837883        0.9079405881        7.4535044183
  O         6.0024372463        1.3794409390        5.8843566652
  O         7.8668416476        3.2438317448        5.8846495579
  O         5.5000451502        3.7463800394        7.4535040969
  O         8.3694131728        0.8770438894        7.4535040877
  O        10.6557133371        1.4103974518        5.9599255965
  O        12.4647606901        3.2154527033        5.9658612374
  O        10.1401285542        3.7162350849        7.4535045105
  O        12.9657368941        0.8994396301        7.4535029381
  O         1.4067013282        6.0313389575        5.9624898801
  O         3.2140893421        7.8432676294        5.9600686843
  O         0.9006524115        8.3466177611        7.4535025387
  O         3.7224092756        5.5590973464        7.4535003922
  O         6.0333995237        6.0327157805        5.9598977852
  O         7.8384561841        7.8417557443        5.9658624259
  O         5.5224369947        8.3427227628        7.4535029472
  O         8.3391504915        5.5171218761        7.4535044959
  O        10.6584955427        6.0354915805        5.9638764611
  O        12.4632875243        7.8402747250        5.9611732218
  O        10.1453378645        8.3469134420        7.4535030858
  O        12.9699480216        5.5223044562        7.4535031230
  O         1.4060968103       10.6520936026        5.9609928909
  O         3.2110361591       12.4569715688        5.9640384931
  O         0.8996918718       12.9702867188        7.4535030966
  O         3.7242948333       10.1456766742        7.4535031072
  O         6.0318621901       10.6514615549        5.9657697348
  O         7.8412344812       12.4599877878        5.9617880036
  O         5.5313892692       12.9755200435        7.4535044293
  O         8.3475405868       10.1504098247        7.4535028759
  O        10.6543486083       10.6526803035        5.9624680124
  O        12.4662722581       12.4600791568        5.9600895255
  O        10.1820353462       12.9683027539        7.4535003614
  O        12.9696142087       10.1466195905        7.4535025554
  O         1.4054798791        1.4088428946        8.9412386492
  O         3.2140297001        3.2181778071        8.9451589617
  O         0.8994285489        3.7218128501       10.4354729785
  O         3.6918584948        0.8883019546       10.4407291457
  O         6.0024402667        1.3794439581        9.0226514766
  O         7.8668386279        3.2438287239        9.0223587854
  O         5.5155651796        3.7314376325       10.4382459759
  O         8.3544460599        0.8925494261       10.4382447251
  O        10.6557123507        1.4103967837        8.9470745256
  O        12.4647598719        3.2154531289        8.9411414454
  O        10.1777483369        3.7354130491       10.4410905959
  O        12.9702846667        0.9018685066       10.4355334630
  O         1.4067023168        6.0313385937        8.9445111758
  O         3.2140897515        7.8432668926        8.9469331956
  O         0.9009275623        8.3449186005       10.4364064329
  O         3.7169446602        5.5341275130       10.4372266101
  O         6.0333989189        6.0327148068        8.9471023217
  O         7.8384565395        7.8417549887        8.9411402725
  O         5.5248763574        8.3472833743       10.4355363679
  O         8.3584165393        5.5547604700       10.4410939619
  O        10.6584962559        6.0354922575        8.9431300517
  O        12.4632864402        7.8402736056        8.9458240302
  O        10.1461851635        8.3466296577       10.4358477591
  O        12.9696568301        5.5231671721       10.4358427636
  O         1.4060978427       10.6520946256        8.9460045001
  O         3.2110354152       12.4569708307        8.9429679531
  O         0.9003783269       12.9696178310       10.4361182113
  O         3.7236239117       10.1463692077       10.4361235121
  O         6.0318616413       10.6514622431        8.9412330187
  O         7.8412347363       12.4599890082        8.9452114664
  O         5.5113179888       12.9377731716       10.4407414563
  O         8.3448353124       10.1453982166       10.4354768412
  O        10.6543482262       10.6526812727        8.9445330416
  O        12.4662715155       12.4600795772        8.9469123428
  O        10.1572629977       12.9630263181       10.4372303690
  O        12.9679407647       10.1469230303       10.4364063521
  O         1.4038135770        1.4092792179       11.9286216587
  O         3.2143330315        3.2154668947       11.9259980478
  O         0.9028793138        3.7227246130       13.4172442224
  O         3.7181791797        0.8990528798       13.4170524686
  O         6.0248605218        1.4018555373       11.9353995700
  O         7.8443021060        3.2212973580       11.9354783045
  O         5.5208556665        3.7254315206       13.4167629522
  O         8.3484429038        0.8978510523       13.4167616856
  O        10.6552215400        1.4085538420       11.9263672280
  O        12.4657093171        3.2146178156       11.9290053948
  O        10.1512163858        3.7242866246       13.4171398935
  O        12.9666531804        0.9006451952       13.4172691465
  O         1.4066121360        6.0306664766       11.9269293620
  O         3.2155341773        7.8400456355       11.9272019777
  O         0.9014803035        8.3446055249       13.4172098062
  O         3.7195252040        5.5269944796       13.4175428488
  O         6.0315406785        6.0322187402       11.9263625739
  O         7.8376195695        7.8427059601       11.9290116133
  O         5.5236416850        8.3436414910       13.4172710167
  O         8.3472836124        5.5282144098       13.4171398322
  O        10.6565625578        6.0335517307       11.9290776796
  O        12.4626669980        7.8396609952       11.9265038576
  O        10.1457525399        8.3465952493       13.4171675455
  O        12.9696064937        5.5227402292       13.4171670248
  O         1.4065238540       10.6525189379       11.9264091295
  O         3.2127663316       12.4587667880       11.9291423168
  O         0.8997528648       12.9695487095       13.4171582148
  O         3.7235501188       10.1457479171       13.4171573552
  O         6.0322898796       10.6497962334       11.9286316850
  O         7.8384923920       12.4603209831       11.9259940213
  O         5.5220678909       12.9641561976       13.4170548218
  O         8.3457370743       10.1488634565       13.4172446932
  O        10.6536707611       10.6526139491       11.9269230412
  O        12.4630624269       12.4615261942       11.9272110150
  O        10.1500086809       12.9655239550       13.4175426887
  O        12.9676093311       10.1474715167       13.4172094764
     270
 i =        2, E =     -8111.7774158988
 Ti         0.0008134108       -0.0001663690        0.0000679105
 Ti         2.3126359008        2.3109757361        1.4908563132
 Ti         4.6317282439        0.0087124204        0.0000624682
 Ti         6.9346054967        2.3115990735        1.5060275188
 Ti         9.2448767679        0.0013503268        0.0000597474
 Ti        11.5566359830        2.3123893287        1.4907298862
 Ti        -0.0006195723        4.6233749427        0.0000678407
 Ti         2.3112420823        6.9349765541        1.4901982425
 Ti         4.6243555168        4.6218716001        0.0000597366
 Ti         6.9353865264        6.9336306795        1.4907299269
 Ti         9.2374610048        4.6144612961        0.0000624831
 Ti        11.5553436467        6.9323328743        1.4912912901
 Ti         0.0000405350        9.2460366560        0.0000629636
 Ti         2.3137964020       11.5597948552        1.4913227259
 Ti         4.6228392993        9.2468113581        0.0000679749
 Ti         6.9339841040       11.5586311200        1.4908578847
 Ti         9.2463772270        9.2453713213        0.0000679048
 Ti        11.5579803951       11.5572362515        1.4901978853
 Ti        -0.0013849458        0.0004686827        2.9808936469
 Ti         2.3109924300        2.3058165130        4.4717325504
 Ti         4.6267833901        0.0037764288        2.9818018688
 Ti         6.9347148474        2.3117076772        4.5067332321
 Ti         9.2488804766       -0.0017823626        2.9850614878
 Ti        11.5592970484        2.3188009003        4.4712814039
 Ti         0.0018988681        4.6230151511        2.9808276468
 Ti         2.3128807728        6.9340377055        4.4717974481
 Ti         4.6212198918        4.6258611965        2.9850598578
 Ti         6.9418058939        6.9363070738        4.4712726014
 Ti         9.2423871616        4.6193836850        2.9818090439
 Ti        11.5553591275        6.9323344942        4.4754360699
 Ti         0.0000804265        9.2460726405        2.9830716190
 Ti         2.3140274318       11.5600208516        4.4755226235
 Ti         4.6234679321        9.2446088249        2.9808916345
 Ti         6.9288411388       11.5569392123        4.4717238965
 Ti         9.2460334121        9.2478858493        2.9808212304
 Ti        11.5570696041       11.5588853487        4.4717950775
 Ti        -0.0001469182       -0.0013176671        5.9616329449
 Ti         2.3106992453        2.3149960275        7.4536133983
 Ti         4.6371360996        0.0140292593        5.9614796075
 Ti         6.9344719643        2.3114539796        7.4535231240
 Ti         9.2463426824        0.0047037828        5.9680691748
 Ti        11.5598150850        2.3096591347        7.4536131280
 Ti         0.0014949329        4.6254916517        5.9618556714
 Ti         2.3140714703        6.9376294602        7.4536141919
 Ti         4.6277295494        4.6233321754        5.9680712408
 Ti         6.9326435998        6.9368109688        7.4536131395
 Ti         9.2323249287        4.6093387796        5.9614021166
 Ti        11.5493246797        6.9262904236        7.4536134401
 Ti         0.0001739920        9.2461583417        5.9637753318
 Ti         2.3200230505       11.5660186162        7.4536135988
 Ti         4.6217017381        9.2458667967        5.9616313347
 Ti         6.9381134216       11.5566680461        7.4536134258
 Ti         9.2485225663        9.2474441503        5.9618490258
 Ti        11.5606053898       11.5600145288        7.4536141884
 Ti        -0.0001485932       -0.0013158372        8.9455066650
 Ti         2.3109968524        2.3058122815       10.4354964858
 Ti         4.6371512522        0.0140445155        8.9456443789
 Ti         6.9347147995        2.3117075895       10.4003323554
 Ti         9.2463337307        0.0047116685        8.9390451027
 Ti        11.5592909202        2.3188034966       10.4359465781
 Ti         0.0014963687        4.6254896137        8.9452838568
 Ti         2.3128885858        6.9340295849       10.4354294568
 Ti         4.6277374780        4.6233232177        8.9390430022
 Ti         6.9418084743        6.9363009004       10.4359553823
 Ti         9.2323097548        4.6093235647        8.9457219646
 Ti        11.5553486703        6.9323241109       10.4317822362
 Ti         0.0001738689        9.2461581826        8.9433622928
 Ti         2.3140375417       11.5600309570       10.4316958327
 Ti         4.6217036025        9.2458651650        8.9455083760
 Ti         6.9288368862       11.5569437482       10.4355051859
 Ti         9.2485204458        9.2474456616        8.9452906109
 Ti        11.5570614809       11.5588930624       10.4354318454
 Ti        -0.0013870996        0.0004689058       11.9262430957
 Ti         2.3126354946        2.3109741607       13.4163726773
 Ti         4.6267971909        0.0037902719       11.9253238018
 Ti         6.9346054400        2.3115990150       13.4010589833
 Ti         9.2488782741       -0.0017809500       11.9220577720
 Ti        11.5566360774        2.3123905502       13.4164982612
 Ti         0.0019006024        4.6230144103       11.9263089970
 Ti         2.3112419049        6.9349763498       13.4170301211
 Ti         4.6212213876        4.6258589899       11.9220593720
 Ti         6.9353877532        6.9336308195       13.4164982484
 Ti         9.2423730584        4.6193696007       11.9253166432
 Ti        11.5553423759        6.9323316162       13.4159187557
 Ti         0.0000803726        9.2460725376       11.9240551441
 Ti         2.3137975359       11.5597959579       13.4158875161
 Ti         4.6234681863        9.2446066697       11.9262451968
 Ti         6.9339824572       11.5586306833       13.4163711784
 Ti         9.2460326111        9.2478876089       11.9263155339
 Ti        11.5579802019       11.5572360138       13.4170304789
  O         1.4086161545        1.4105199578       -0.0000006111
  O         3.2128679410        3.2125930165       -0.0000001671
  O         0.9039661538        3.7211568399        1.4889318812
  O         3.7172708277        0.9010865850        1.4890771654
  O         6.0308986080        1.4078912497       -0.0000003262
  O         7.8382487730        3.2152459404       -0.0000002044
  O         5.5228298146        3.7234361808        1.4893723383
  O         8.3464455930        0.8998257353        1.4893736165
  O        10.6564022561        1.4106841570       -0.0000001305
  O        12.4607748220        3.2128476844       -0.0000006605
  O        10.1520368360        3.7222044582        1.4889755807
  O        12.9654696675        0.9021568334        1.4889000048
  O         1.4093682143        6.0333059656        0.0000000655
  O         3.2128983896        7.8368823767        0.0000000500
  O         0.9029624043        8.3431188954        1.4889837967
  O         3.7184382877        5.5279815808        1.4886391472
  O         6.0336835082        6.0333968102       -0.0000001294
  O         7.8358466458        7.8377699705       -0.0000006492
  O         5.5251544774        8.3424608930        1.4888981041
  O         8.3452020824        5.5290350206        1.4889759779
  O        10.6571318213        6.0341277551        0.0000004315
  O        12.4600375225        7.8370311761       -0.0000014314
  O        10.1474792617        8.3448512291        1.4890183830
  O        12.9678605030        5.5244694294        1.4890188700
  O         1.4091229101       10.6551222953       -0.0000014364
  O         3.2120908722       12.4580875664        0.0000004457
  O         0.9014645767       12.9677903396        1.4890265252
  O         3.7217919855       10.1474601609        1.4890274451
  O         6.0335269815       10.6546075740       -0.0000006035
  O         7.8356023722       12.4588621790       -0.0000001673
  O         5.5240997328       12.9632530193        1.4890752836
  O         8.3441671874       10.1499539252        1.4889311685
  O        10.6563093109       10.6553643224        0.0000000751
  O        12.4598862663       12.4588963051        0.0000000416
  O        10.1509929594       12.9644367878        1.4886393378
  O        12.9661222176       10.1489550116        1.4889839996
  O         1.4059534745        1.4116305029        2.9768391126
  O         3.2119046196        3.2130850543        2.9798534437
  O         0.9013581431        3.7202598381        4.4702659978
  O         3.6950934901        0.8908565867        4.4638659820
  O         6.0272210751        1.4042133059        2.9696007696
  O         7.8419899978        3.2189855640        2.9694835607
  O         5.5182772818        3.7287550465        4.4669239963
  O         8.3517620770        0.8952603659        4.4669259050
  O        10.6576441112        1.4109070863        2.9793893108
  O        12.4636498912        3.2122298280        2.9764317029
  O        10.1745646340        3.7329883378        4.4634562768
  O        12.9682728423        0.9033389758        4.4702210508
  O         1.4090404242        6.0330429267        2.9787975206
  O         3.2131523119        7.8376506525        2.9784959229
  O         0.9026522115        8.3432193549        4.4691179454
  O         3.7164266261        5.5335184722        4.4681807655
  O         6.0338953049        6.0346420063        2.9793954053
  O         7.8352310209        7.8406456704        2.9764254296
  O         5.5263459830        8.3452721587        4.4702180860
  O         8.3559913390        5.5515773068        4.4634521825
  O        10.6589197559        6.0359099899        2.9762439566
  O        12.4603684122        7.8373620844        2.9791536409
  O        10.1479096186        8.3448011883        4.4698721312
  O        12.9678230848        5.5248954095        4.4698776552
  O         1.4088162372       10.6548107698        2.9792485525
  O         3.2104203456       12.4564202894        2.9761687477
  O         0.9021148662       12.9678332349        4.4695446371
  O         3.7218392517       10.1481061382        4.4695382674
  O         6.0346422708       10.6519355302        2.9768289096
  O         7.8361099299       12.4578926615        2.9798585045
  O         5.5138753548       12.9410031316        4.4638518281
  O         8.3432775660       10.1473309672        4.4702618905
  O        10.6560467911       10.6550417499        2.9788042772
  O        12.4606680510       12.4591436160        2.9784864515
  O        10.1566214991       12.9624859612        4.4681767168
  O        12.9662372024       10.1486487026        4.4691181646
  O         1.4076077104        1.4110512300        5.9658124099
  O         3.2117289161        3.2159216363        5.9607679983
  O         0.9055511512        3.7224557903        7.4535022090
  O         3.7268266164        0.9083326019        7.4535041963
  O         5.9996470170        1.3766487877        5.8823818420
  O         7.8696925268        3.2466819262        5.8826234292
  O         5.5004586471        3.7459012905        7.4535042697
  O         8.3689334247        0.8774512658        7.4535042608
  O        10.6579066282        1.4125416604        5.9583035488
  O        12.4626720362        3.2131572300        5.9660109702
  O        10.1428518418        3.7156051133        7.4535043027
  O        12.9643129052        0.9014056488        7.4535022982
  O         1.4090466773        6.0336531709        5.9617378746
  O         3.2117196339        7.8411460627        5.9587303353
  O         0.9025389266        8.3446016446        7.4535017025
  O         3.7203103786        5.5560136620        7.4534989532
  O         6.0355401212        6.0349063479        5.9582736750
  O         7.8361607155        7.8396662972        5.9660141496
  O         5.5244036811        8.3413012015        7.4535023030
  O         8.3385464020        5.5198440625        7.4535042893
  O        10.6606452576        6.0376419119        5.9632878018
  O        12.4611867310        7.8381734267        5.9600163209
  O        10.1472980203        8.3450022385        7.4535024057
  O        12.9680300622        5.5242713082        7.4535024322
  O         1.4082308205       10.6542274962        5.9597543386
  O         3.2088223403       12.4547634761        5.9634947070
  O         0.9015931819       12.9682998735        7.4535024144
  O         3.7223078732       10.1475790619        7.4535024246