      77
 i =       69, E =     -1335.5834405500
 Fe        18.3384628346        0.0000403142        0.0001419581
 Fe        15.2682461767        0.0017968578        0.0083813607
 Fe        12.1837839752       -0.0000135791        0.0004214102
 Fe         9.1695523997        0.0133785766       -0.0114533162
 Fe         6.1554556885       -0.0000707163       -0.0005245323
 Fe         3.0713622961       -0.0023770036       -0.0093313717
 Fe         0.0008255109       -0.0000688638       -0.0002872174
  O        18.3324386789       -0.0332800927        2.0963400135
  O        18.3258421380        0.0333920347       -2.0956655991
  O        19.8610205729       -1.2262770150       -0.0282694191
  O        19.8612400870        1.2261703223        0.0280728605
  O        15.3160408750       -0.0314252883        2.1107099935
  O        15.3055973685        0.0323276704       -2.1017045855
  O        16.8173373190       -1.2202137271       -0.0258981767
  O        16.8181061416        1.2230295029        0.0286322193
  O        12.2798179481        0.0287632358        2.1523929383
  O        12.2817369644       -0.0301043171       -2.1368261084
  O        13.7768101103       -1.2155118896        0.0178743974
  O        13.7773702985        1.2188516724        0.0212925232
  O         9.1691438320        0.0329620288        2.1783312376
  O         9.1708933128        0.0281007898       -2.2049264996
  O        10.8030839233       -1.2675907762        0.0235414385
  O        10.8118568410        1.2754632845       -0.0298325240
  O         6.0592066411        0.0292892779        2.1255615461
  O         6.0594139543       -0.0297782482       -2.1512015534
  O         7.5366837484       -1.2678087156        0.0233167485
  O         7.5283341796        1.2757135127       -0.0299563861
  O         3.0283772866       -0.0321177213        2.1002416168
  O         3.0199725674        0.0300640715       -2.1102152762
  O         4.5624216054       -1.2194829013       -0.0206973708
  O         4.5608640575        1.2156329456       -0.0200693488
  O        -0.0175820286       -0.0336731294        2.0956376539
  O        -0.0208700957        0.0334626221       -2.0959627987
  O         1.5197795448       -1.2222378171       -0.0285099740
  O         1.5204656464        1.2186418596        0.0254376582
  H        18.2543629305       -0.7731876657       -2.6673841915
  H        18.2308539581        0.8514754369       -2.6474989319
  H        18.2324601935       -0.8511055082        2.6477712257
  H        18.2506275486        0.7732639089        2.6668312201
  H        19.8604653512       -2.2144385137       -0.0343843226
  H        19.8606111749        2.2143304688        0.0339242630
  H        15.1460289433       -0.7762450143       -2.6538509598
  H        15.0766608133        0.8434450107       -2.6251279837
  H        15.0808639354       -0.8435503076        2.6300601261
  H        15.1405467657        0.7757496708        2.6604171901
  H        16.8065407364       -2.2083978447       -0.0319644246
  H        16.8083069476        2.2112210764        0.0364713881
  H        12.1086537488       -0.8552896034       -2.6597768497
  H        12.0342776156        0.7674887670       -2.6719386141
  H        12.0409683382       -0.7710211208        2.6880295208
  H        12.0970819243        0.8528852392        2.6732910497
  H        13.7460479157       -2.2025667639        0.0094734139
  H        13.7461761016        2.2059085889        0.0230416105
  H         9.1667649578       -0.7759075716       -2.7849034391
  H         9.1652398473        0.8502771253       -2.7588257678
  H         9.1678823793       -0.7809001250        2.7444849723
  H         9.1695637062        0.8447835858        2.7475207247
  H        10.7796079898       -2.2529908523        0.0301435284
  H        10.7983314575        2.2611747543       -0.0285560041
  H         6.2306904873       -0.8551581254       -2.6739294328
  H         6.3008090900        0.7684942958       -2.6875630764
  H         6.2850504596       -0.7710894781        2.6661103842
  H         6.2325061271        0.8528491222        2.6507622429
  H         7.5597468712       -2.2532387386        0.0237857826
  H         7.5415060254        2.2614144697       -0.0349217840
  H         3.1758175957       -0.7783970673       -2.6637924716
  H         3.2526578533        0.8407045258       -2.6328097475
  H         3.2444126072       -0.8435524475        2.6284000726
  H         3.1759647777        0.7770207247        2.6547481935
  H         4.5938479681       -2.2065550096       -0.0233879279
  H         4.5908792972        2.2026954082       -0.0152599350
  H         0.0361717395       -0.7737634598       -2.6685285660
  H         0.0719231417        0.8505306682       -2.6497805892
  H         0.0686929152       -0.8511586857        2.6499312901
  H         0.0320834884        0.7735204121        2.6690040496
  H         1.5288585868       -2.2104415415       -0.0369407003
  H         1.5309426613        2.2068339598        0.0314201691
