      77
 i =        1, E =     -1335.5752464381
 Fe        18.3364846526        0.0000030960        0.0000064695
 Fe        15.2666553540       -0.0000059314        0.0001883150
 Fe        12.1893577285       -0.0000362389       -0.0003418141
 Fe         9.1680327183        0.0000062060        0.0000039149
 Fe         6.1450012238        0.0000418937        0.0003591176
 Fe         3.0684144515        0.0000049320       -0.0001484807
 Fe        -0.0071018016        0.0000144895       -0.0000820437
  O        18.3325356240       -0.0000076116        2.1280338269
  O        18.3323979044        0.0000176463       -2.1280067813
  O        19.8604628369       -1.2404063940       -0.0000169312
  O        19.8604715721        1.2404022357       -0.0000124881
  O        15.2930052680       -0.0003351711        2.1340689697
  O        15.2929436526        0.0003619257       -2.1338169045
  O        16.8173473628       -1.2405774233       -0.0000176313
  O        16.8173425711        1.2405931750        0.0002716911
  O        12.2729839814        0.0018703998        2.1488710282
  O        12.2738960515       -0.0020108030       -2.1496439597
  O        13.7833977882       -1.2378797560       -0.0003166705
  O        13.7833937613        1.2378249354        0.0003729400
  O         9.1685329380       -0.0028511850        2.2751717701
  O         9.1679553060        0.0028646965       -2.2751616241
  O        10.8179318450       -1.3031669628        0.0049716275
  O        10.8179827637        1.3030428283       -0.0061888036
  O         6.0613273130        0.0016786154        2.1521125959
  O         6.0620494335       -0.0015700580       -2.1512020733
  O         7.5181980266       -1.3041027884        0.0064186969
  O         7.5182434398        1.3042619563       -0.0051643636
  O         3.0408541513       -0.0004106444        2.1338737522
  O         3.0407865493        0.0003857646       -2.1340912173
  O         4.5526776792       -1.2382747271       -0.0004562663
  O         4.5526641164        1.2383325910        0.0003388340
  O         0.0011285174       -0.0000312910        2.1282422993
  O         0.0009901099        0.0000135175       -2.1282291902
  O         1.5186270327       -1.2405813495       -0.0003247995
  O         1.5186210394        1.2405627969        0.0000147882
  H        18.2823545935       -0.8050157905       -2.6955548410
  H        18.2820592942        0.8050576407       -2.6955146755
  H        18.2823351111       -0.8050623993        2.6955374733
  H        18.2825552031        0.8050286796        2.6955848019
  H        19.8600878557       -2.2352194339        0.0000153025
  H        19.8601116631        2.2352151500       -0.0000100538
  H        15.1528769591       -0.8041839009       -2.6891597050
  H        15.1513091508        0.8046036248       -2.6891269887
  H        15.1516118334       -0.8045701826        2.6895726479
  H        15.1531107305        0.8041940946        2.6895967699
  H        16.8006060073       -2.2351052075       -0.0000056828
  H        16.8006070787        2.2351230101        0.0000988025
  H        12.0948920002       -0.8074983564       -2.6978182475
  H        12.0855945348        0.8048596519       -2.6947434962
  H        12.0848725254       -0.8048745957        2.6939579986
  H        12.0940787834        0.8074684312        2.6968503428
  H        13.7388106547       -2.2303672808        0.0014647056
  H        13.7386930232        2.2303018967       -0.0008121726
  H         9.1670085323       -0.8049949272       -2.8419630688
  H         9.1669702221        0.8087397748       -2.8449104468
  H         9.1668481956       -0.8087368502        2.8449094039
  H         9.1667157208        0.8050013277        2.8419830998
  H        10.7820844728       -2.2955603645       -0.0034724864
  H        10.7822175941        2.2954865536        0.0015404185
  H         6.2391238776       -0.8074288952       -2.6973933954
  H         6.2483562199        0.8049556446       -2.6944925372
  H         6.2476166806       -0.8049648277        2.6952379157
  H         6.2383457671        0.8074563658        2.6983614700
  H         7.5534206226       -2.2954262136       -0.0015524126
  H         7.5535296054        2.2955068302        0.0034820027
  H         3.1797103777       -0.8041297822       -2.6899647756
  H         3.1809993582        0.8046376011       -2.6899352645
  H         3.1812650256       -0.8047233723        2.6894741283
  H         3.1799911416        0.8041652374        2.6895065746
  H         4.5967302366       -2.2302597575        0.0007574762
  H         4.5966025635        2.2303297095       -0.0014150316
  H         0.0500351361       -0.8049967729       -2.6957007290
  H         0.0499257022        0.8050593015       -2.6956563262
  H         0.0501765804       -0.8051179793        2.6956226567
  H         0.0502619815        0.8050356985        2.6956526182
  H         1.5346636955       -2.2351079100       -0.0001255990
  H         1.5346596354        2.2350869061        0.0000393401
      77
 i =        2, E =     -1335.5776098527
 Fe        18.3556487367       -0.0000154749       -0.0000250043
 Fe        15.2623195502       -0.0000055816        0.0001890067
 Fe        12.1783076291       -0.0000393443       -0.0001105233
 Fe         9.1684276363        0.0000126871        0.0000068891
 Fe         6.1485340346        0.0000688883        0.0003482066
 Fe         3.0722193982        0.0000028365       -0.0001638673
 Fe         0.0246382008       -0.0000371512        0.0001507912
  O        18.3275284730       -0.0000186568        2.1358700533
  O        18.3272700560        0.0000404587       -2.1357684608
  O        19.8612687842       -1.2383370360       -0.0000214791
  O        19.8612720853        1.2383368208       -0.0000146691
  O        15.2935295830       -0.0005335680        2.1390158231
  O        15.2934247280        0.0005831422       -2.1389166322
  O        16.8198203623       -1.2365311990       -0.0000260831
  O        16.8198208548        1.2365484968        0.0003159566
  O        12.2764378614        0.0014056058        2.1470555432
  O        12.2772495316       -0.0014679303       -2.1476060358
  O        13.7792005779       -1.2341433569       -0.0003634493
  O        13.7791870967        1.2340709853        0.0004355643
  O         9.1694582984       -0.0030053667        2.2672170417
  O         9.1691580695        0.0030248570       -2.2672338006
  O        10.8100269159       -1.2934345022        0.0061210268
  O        10.8102809634        1.2934128127       -0.0076773627
  O         6.0581368499        0.0013877770        2.1475322367
  O         6.0587755895       -0.0013109792       -2.1469220510
  O         7.5283519269       -1.2915722656        0.0091281404
  O         7.5287806715        1.2915556508       -0.0073504712
  O         3.0372123110       -0.0006701766        2.1397776736
  O         3.0371491783        0.0006226271       -2.1398504118
  O         4.5602926167       -1.2340035974       -0.0005984278
  O         4.5602800065        1.2340917516        0.0004560948
  O         0.0007428334       -0.0000758692        2.1382762939
  O         0.0005253347        0.0000353640       -2.1383228907
  O         1.5184745974       -1.2361378502       -0.0003776792
  O         1.5184746017        1.2361213079        0.0000272267
  H        18.2816923681       -0.8115935405       -2.6976327690
  H        18.2813883070        0.8116397176       -2.6975955294
  H        18.2816676796       -0.8116400675        2.6976188485
  H        18.2818949374        0.8116034587        2.6976639346
  H        19.8601130521       -2.2305210905        0.0000157261
  H        19.8601349642        2.2305172726       -0.0000104014
  H        15.1516513075       -0.8099454274       -2.6903287809
  H        15.1500408781        0.8104101940       -2.6903167323
  H        15.1503566310       -0.8103458896        2.6907177477
  H        15.1518976539        0.8099269166        2.6907217521
  H        16.8008305391       -2.2304685913       -0.0000047491
  H        16.8008305674        2.2304843450        0.0001001451
  H        12.0945117497       -0.8114172735       -2.6970804740
  H        12.0852908548        0.8078776040       -2.6934041589
  H        12.0845384044       -0.8079821198        2.6926904261
  H        12.0936866397        0.8113892412        2.6961362476
  H        13.7394863005       -2.2259414147        0.0014660778
  H        13.7393761927        2.2258823288       -0.0008233715
  H         9.1669849251       -0.8106608253       -2.8444068158
  H         9.1669428520        0.8144524610       -2.8470769150
  H         9.1668189403       -0.8144464603        2.8470743886
  H         9.1666885422        0.8106658781        2.8444261746
  H        10.7831055043       -2.2899053449       -0.0032508035
  H        10.7832337778        2.2897947584        0.0013340645
  H         6.2397057634       -0.8119073851       -2.6973830106
  H         6.2489606092        0.8089282008       -2.6941155752
  H         6.2482207537       -0.8089274978        2.6948746802
  H         6.2389346092        0.8119648712        2.6983821381
  H         7.5524167468       -2.2907888283       -0.0013509113
  H         7.5525226554        2.2909337704        0.0032664582
  H         3.1808752073       -0.8098301773       -2.6910376924
  H         3.1822052895        0.8103892988       -2.6910325018
  H         3.1824808420       -0.8104851788        2.6906230778
  H         3.1811665840        0.8098730319        2.6906304472
  H         4.5960890110       -2.2262877363        0.0007698235
  H         4.5959688989        2.2263499698       -0.0014203817
  H         0.0507245810       -0.8116345385       -2.6978502330
  H         0.0506175565        0.8117009279       -2.6978097779
  H         0.0508711330       -0.8117362063        2.6977789019
  H         0.0509533221        0.8116466588        2.6978051744
  H         1.5344657143       -2.2304898027       -0.0001275847
  H         1.5344619681        2.2304715717        0.0000372615
      77
 i =        3, E =     -1335.5799641181
 Fe        18.3409387008       -0.0000028002       -0.0000258880
 Fe        15.2613518302       -0.0000001182        0.0001629901
 Fe        12.1693557835        0.0003017783        0.0009723658
 Fe         9.1689945217        0.0000223225        0.0000102633
 Fe         6.1590892743        0.0000746244        0.0002761283
 Fe         3.0828795399        0.0000019124       -0.0001852220
 Fe         0.0313986699       -0.0000460141        0.0002192998
  O        18.3230032082       -0.0000212096        2.1391944464
  O        18.3225898445        0.0000358701       -2.1390805242
  O        19.8683506884       -1.2341108525       -0.0000182218
  O        19.8683513796        1.2340941730       -0.0000031576
  O        15.2940879157       -0.0005841764        2.1455328211
  O        15.2939790291        0.0006319814       -2.1453770215
  O        16.8222860625       -1.2308229922       -0.0000490132
  O        16.8222901961        1.2308332021        0.0004037177
  O        12.2785462133        0.0020340849        2.1521023069
  O        12.2790779204       -0.0021618103       -2.1524694487
  O        13.7741734362       -1.2302701746       -0.0004342905
  O        13.7741684364        1.2301937577        0.0005677305
  O         9.1704430849       -0.0030037498        2.2692956363
  O         9.1704870793        0.0030208587       -2.2693075885
  O        10.8027900305       -1.2899952644        0.0067320180
  O        10.8030747622        1.2900013077       -0.0085464538
  O         6.0568585979        0.0019002239        2.1522374473
  O         6.0572314432       -0.0017864537       -2.1517676476
  O         7.5345174735       -1.2881826965        0.0105533647
  O         7.5350054731        1.2881791112       -0.0084157493
  O         3.0309443559       -0.0006904332        2.1449447841
  O         3.0309310953        0.0006470551       -2.1450806392
  O         4.5639318435       -1.2299075439       -0.0007913399
  O         4.5639418846        1.2300002240        0.0006175216
  O         0.0002507001       -0.0000715090        2.1407366329
  O        -0.0000892156        0.0000323841       -2.1407342374
  O         1.5229283788       -1.2345853963       -0.0004682081
  O         1.5229294033        1.2345571917        0.0000742521
  H        18.2803911153       -0.8175700440       -2.7003605096
  H        18.2800716540        0.8176566242       -2.7003475962
  H        18.2803520206       -0.8176684452        2.7003973089
  H        18.2805919494        0.8176127071        2.7004278197
  H        19.8601095279       -2.2233554962        0.0000142622
  H        19.8601295465        2.2233549252       -0.0000140098
  H        15.1502201179       -0.8141176688       -2.6906751408
  H        15.1484928192        0.8149543696       -2.6908830353
  H        15.1488447496       -0.8148054631        2.6911600785
  H        15.1504957540        0.8140525967        2.6909657369
  H        16.8014725442       -2.2211402059       -0.0000025765
  H        16.8014726154        2.2211560865        0.0001012502
  H        12.0953015259       -0.8117949205       -2.6923093724
  H        12.0858472019        0.8084810411       -2.6887523678
  H        12.0850640110       -0.8086423394        2.6881441302
  H        12.0944293955        0.8118829248        2.6915210194
  H        13.7405808850       -2.2173112184        0.0014701950
  H        13.7404804586        2.2172369278       -0.0008521453
  H         9.1670974149       -0.8097078155       -2.8408597189
  H         9.1670343700        0.8139545263       -2.8432115667
  H         9.1669033583       -0.8139329641        2.8431935889
  H         9.1667920570        0.8097079107        2.8408681653
  H        10.7844405729       -2.2738536052       -0.0027717608
  H        10.7845687104        2.2738174977        0.0008697369
  H         6.2391825168       -0.8119098240       -2.6925972576
  H         6.2486470670        0.8090014054       -2.6892854647
  H         6.2478864258       -0.8089180546        2.6899605567
  H         6.2383828859        0.8118627599        2.6934904209
  H         7.5512457580       -2.2726354604       -0.0008161847
  H         7.5513666778        2.2726543268        0.0027183781
  H         3.1823609265       -0.8140831680       -2.6915108794
  H         3.1838072963        0.8150377362       -2.6917416850
  H         3.1841143002       -0.8151928982        2.6914639838
  H         3.1826769373        0.8141475254        2.6912132731
  H         4.5954095022       -2.2177360431        0.0007980216
  H         4.5952964826        2.2178274866       -0.0014338642
  H         0.0514628213       -0.8184737346       -2.7018017974
  H         0.0513629545        0.8185773881       -2.7017845897
  H         0.0516196331       -0.8185930715        2.7017581970
  H         0.0516907822        0.8184284519        2.7017349371
  H         1.5340519841       -2.2207861413       -0.0001339977
  H         1.5340456505        2.2207707498        0.0000301036
      77
 i =        4, E =     -1335.5804327377
 Fe        18.3373781026        0.0000007162       -0.0000242989
 Fe        15.2609687338       -0.0000053628        0.0001463202
 Fe        12.1735712839        0.0001763882        0.0006447550
 Fe         9.1690253109        0.0000225050        0.0000047343
 Fe         6.1663169423       -0.0000163985       -0.0000805527
 Fe         3.0852239724        0.0000020436       -0.0001914950
 Fe         0.0306272174       -0.0000447749        0.0002216477
  O        18.3217628545       -0.0000240400        2.1396669415
  O        18.3213152781        0.0000399531       -2.1395425601
  O        19.8693560630       -1.2318940332       -0.0000156365
  O        19.8693570766        1.2318750822        0.0000021679
  O        15.2944121491       -0.0006218145        2.1460008339
  O        15.2943029751        0.0006742922       -2.1458522219
  O        16.8221836787       -1.2287962354       -0.0000562771
  O        16.8221877141        1.2288067609        0.0004344060
  O        12.2792068597        0.0021147670        2.1523821249
  O        12.2796762217       -0.0022391773       -2.1526912779
  O        13.7734765433       -1.2282200381       -0.0004400475
  O        13.7734707315        1.2281558874        0.0006192842
  O         9.1705949211       -0.0030021102        2.2698201811
  O         9.1706791535        0.0030212304       -2.2698288420
  O        10.8015168856       -1.2874913111        0.0068575715
  O        10.8017707118        1.2875378583       -0.0086941266
  O         6.0564232375        0.0019701075        2.1526172119
  O         6.0567328834       -0.0018524966       -2.1521739330
  O         7.5354095838       -1.2856932723        0.0107966519
  O         7.5358717157        1.2856781704       -0.0085951189
  O         3.0290764904       -0.0007343431        2.1455283868
  O         3.0290754702        0.0006882491       -2.1456606070
  O         4.5644744694       -1.2281014544       -0.0008467495
  O         4.5644888294        1.2281963706        0.0006629784
  O         0.0001810549       -0.0000806028        2.1414838017
  O        -0.0001992449        0.0000369505       -2.1414815974
  O         1.5242525996       -1.2328479187       -0.0004971690
  O         1.5242532933        1.2328177828        0.0000913530
  H        18.2800348809       -0.8183307212       -2.7008885041
  H        18.2797114320        0.8184228020       -2.7008785936
  H        18.2799922478       -0.8184367236        2.7009359065
  H        18.2802357892        0.8183774153        2.7009634306
  H        19.8601932013       -2.2217161232        0.0000134369
  H        19.8602129722        2.2217129189       -0.0000153037
  H        15.1497706754       -0.8148597644       -2.6908857040
  H        15.1480157841        0.8157713127       -2.6911339434
  H        15.1483770634       -0.8156197776        2.6913889028
  H        15.1500553759        0.8147977253        2.6911580380
  H        16.8017049730       -2.2188053805       -0.0000023732
  H        16.8017056215        2.2188201226        0.0001016535
  H        12.0954178442       -0.8121965680       -2.6913489590
  H        12.0859165579        0.8088104090       -2.6877387113
  H        12.0851280951       -0.8089871601        2.6871643106
  H        12.0945395718        0.8122987693        2.6906039884
  H        13.7408321360       -2.2155338373        0.0014702672
  H        13.7407376036        2.2154566302       -0.0008643653
  H         9.1671446345       -0.8093547963       -2.8398549459
  H         9.1670723628        0.8137376652       -2.8420924498
  H         9.1669339118       -0.8137154662        2.8420715701
  H         9.1668302357        0.8093550391        2.8398614806
  H        10.7846742161       -2.2709219357       -0.0026356654
  H        10.7847987068        2.2709095162        0.0007312406
  H         6.2391326883       -0.8121554332       -2.6915772619
  H         6.2486510520        0.8091760926       -2.6881861036
  H         6.2478855464       -0.8090729644        2.6888312901
  H         6.2383274126        0.8120908951        2.6924406149
  H         7.5510733668       -2.2692108643       -0.0006578487
  H         7.5511998745        2.2692030663        0.0025580426
  H         3.1827467070       -0.8146692276       -2.6915727325
  H         3.1842183867        0.8156951911       -2.6918414863
  H         3.1845304196       -0.8158481816        2.6915874789
  H         3.1830666815        0.8147258067        2.6912962578
  H         4.5952680144       -2.2158424263        0.0008077204
  H         4.5951567028        2.2159407769       -0.0014389444
  H         0.0516357615       -0.8192444332       -2.7025092868
  H         0.0515378573        0.8193533121       -2.7024950173
  H         0.0517959076       -0.8193702921        2.7024749390
  H         0.0518643382        0.8191945369        2.7024444424
  H         1.5339748455       -2.2191936055       -0.0001364708
  H         1.5339674604        2.2191761344        0.0000279580
      77
 i =        5, E =     -1335.5809249860
 Fe        18.3410130281        0.0000069377        0.0000629327
 Fe        15.2600669507       -0.0000233986        0.0000983680
 Fe        12.1969111747       -0.0006665754       -0.0020824740
 Fe         9.1696149496        0.0000253435       -0.0000085580
 Fe         6.1670295578       -0.0001134775       -0.0004503819
 Fe         3.0896030351        0.0000067143       -0.0002003602
 Fe         0.0247003177       -0.0000356565        0.0002000634
  O        18.3186052966       -0.0000349851        2.1400575582
  O        18.3180913675        0.0000591681       -2.1398957912
  O        19.8697354342       -1.2247257121       -0.0000065698
  O        19.8697395687        1.2247048952        0.0000193400
  O        15.2954737680       -0.0007672935        2.1449398855
  O        15.2953588348        0.0008388163       -2.1448515994
  O        16.8204112328       -1.2230582705       -0.0000784582
  O        16.8204136391        1.2230716594        0.0005217510
  O        12.2811046680        0.0021461538        2.1510071292
  O        12.2814410756       -0.0022334288       -2.1511743554
  O        13.7732163625       -1.2217740493       -0.0004386276
  O        13.7732056746        1.2217465611        0.0007640789
  O         9.1706999226       -0.0030066464        2.2705508484
  O         9.1707799864        0.0030326138       -2.2705523622
  O        10.7999729930       -1.2784865287        0.0070632129
  O        10.8001012209        1.2786503625       -0.0088832126
  O         6.0552434503        0.0020198858        2.1516105809
  O         6.0554268187       -0.0019089971       -2.1512382244
  O         7.5366069828       -1.2773288436        0.0110964655
  O         7.5369281545        1.2772403010       -0.0088286352
  O         3.0241601997       -0.0009146971        2.1455764257
  O         3.0241897299        0.0008542743       -2.1456653449
  O         4.5653245939       -1.2224643046       -0.0009985514
  O         4.5653436073        1.2225586940        0.0007680354
  O         0.0000517537       -0.0001209779        2.1434155787
  O        -0.0004445230        0.0000575545       -2.1434372428
  O         1.5273373345       -1.2263247622       -0.0005803291
  O         1.5273361100        1.2262914584        0.0001419669
  H        18.2791615116       -0.8184888263       -2.7017594538
  H        18.2788283391        0.8185858551       -2.7017512871
  H        18.2791103218       -0.8186022415        2.7018284961
  H        18.2793631313        0.8185366821        2.7018500520
  H        19.8605913432       -2.2178524714        0.0000108113
  H        19.8606109862        2.2178368890       -0.0000188053
  H        15.1485709556       -0.8157822928       -2.6915387512
  H        15.1467546829        0.8168335196       -2.6918510864
  H        15.1471356443       -0.8167109361        2.6920719048
  H        15.1488766080        0.8157566297        2.6917823580
  H        16.8023946235       -2.2133798220       -0.0000021229
  H        16.8023970457        2.2133903267        0.0001036930
  H        12.0954940704       -0.8137228741       -2.6896035208
  H        12.0859040809        0.8099101501       -2.6857005390
  H        12.0851075620       -0.8101155970        2.6852208281
  H        12.0946108546        0.8138241054        2.6889661644
  H        13.7413718979       -2.2119095843        0.0014699770
  H        13.7412948407        2.2118328445       -0.0008999622
  H         9.1672994555       -0.8085884282       -2.8375401007
  H         9.1671975446        0.8133241497       -2.8394298716
  H         9.1670298208       -0.8133055450        2.8394046551
  H         9.1669501850        0.8085923507        2.8375434554
  H        10.7850139698       -2.2661624830       -0.0022799104
  H        10.7851262033        2.2662236970        0.0003622836
  H         6.2391820030       -0.8132787763       -2.6896747344
  H         6.2488320942        0.8099584832       -2.6859619178
  H         6.2480601258       -0.8098165785        2.6865238638
  H         6.2383710298        0.8131980727        2.6904626578
  H         7.5509516604       -2.2634963584       -0.0002315290
  H         7.5510923075        2.2634389500        0.0021347295
  H         3.1836470541       -0.8149135616       -2.6915166976
  H         3.1851706186        0.8160537834       -2.6918326446
  H         3.1854903412       -0.8161675728        2.6916145703
  H         3.1839739558        0.8149255295        2.6912754065
  H         4.5949782930       -2.2118353248        0.0008371991
  H         4.5948730686        2.2119468575       -0.0014516754
  H         0.0520437387       -0.8190365807       -2.7035637475
  H         0.0519508835        0.8191509641       -2.7035516350
  H         0.0522137274       -0.8191830086        2.7035563041
  H         0.0522757533        0.8189941032        2.7035176689
  H         1.5338729710       -2.2168808019       -0.0001438978
  H         1.5338626727        2.2168533143        0.0000228081
      77
 i =        6, E =     -1335.5812218226
 Fe        18.3402526047        0.0000038256        0.0000313523
 Fe        15.2607059581       -0.0000112983        0.0001153333
 Fe        12.1970258776       -0.0006579057       -0.0022121862
 Fe         9.1703078948        0.0000374740        0.0000102265
 Fe         6.1607715447        0.0000389401        0.0001282164
 Fe         3.0892289249        0.0000101080       -0.0001958448
 Fe         0.0236757559       -0.0000335713        0.0001906875
  O        18.3181578043       -0.0000370980        2.1397885415
  O        18.3176440790        0.0000616255       -2.1396194948
  O        19.8691740567       -1.2240295537       -0.0000042895
  O        19.8691796146        1.2240084978        0.0000237502
  O        15.2956054884       -0.0008056784        2.1446484678
  O        15.2954731342        0.0008768716       -2.1445734620
  O        16.8199399882       -1.2221876065       -0.0000866213
  O        16.8199428321        1.2221979277        0.0005358204
  O        12.2815757464        0.0021476951        2.1504831293
  O        12.2818845676       -0.0022476901       -2.1506889138
  O        13.7739198044       -1.2214767422       -0.0004607594
  O        13.7739103131        1.2214176937        0.0007592789
  O         9.1705802708       -0.0030219948        2.2700531175
  O         9.1706409581        0.0030445840       -2.2700598790
  O        10.8007870817       -1.2771348985        0.0069970247
  O        10.8009165112        1.2772399179       -0.0088500689
  O         6.0550259446        0.0020399308        2.1509474242
  O         6.0552111271       -0.0019328992       -2.1506020361
  O         7.5364892363       -1.2764664647        0.0110068888
  O         7.5367710882        1.2763641890       -0.0087774542
  O         3.0233777443       -0.0009447861        2.1453189038
  O         3.0234128227        0.0008821201       -2.1454032416
  O         4.5653396687       -1.2218809675       -0.0010283294
  O         4.5653555067        1.2219700496        0.0007750702
  O        -0.0000943530       -0.0001272825        2.1433499356
  O        -0.0006176668        0.0000607896       -2.1433744010
  O         1.5273012050       -1.2253685626       -0.0005995193
  O         1.5272999633        1.2253348277        0.0001532229
  H        18.2790103182       -0.8179266838       -2.7017465786
  H        18.2786752354        0.8180259839       -2.7017395927
  H        18.2789564028       -0.8180407031        2.7018219266
  H        18.2792107997        0.8179736054        2.7018419439
  H        19.8607297994       -2.2166826241        0.0000104364
  H        19.8607494426        2.2166651612       -0.0000191653
  H        15.1484111750       -0.8153706484       -2.6915030879
  H        15.1465833936        0.8164485360       -2.6918234473
  H        15.1469599104       -0.8163315619        2.6920392100
  H        15.1487107556        0.8153545556        2.6917409524
  H        16.8025277947       -2.2125485043       -0.0000012163
  H        16.8025292076        2.2125591284        0.0001056607
  H        12.0954354697       -0.8138981901       -2.6893794790
  H        12.0858230916        0.8100085762       -2.6854171389
  H        12.0850238468       -0.8101996706        2.6849522205
  H        12.0945480716        0.8139884223        2.6887499245
  H        13.7414463197       -2.2110266516        0.0014746794
  H        13.7413650624        2.2109563364       -0.0008997596
  H         9.1673406298       -0.8087659056       -2.8374676416
  H         9.1672325653        0.8135566855       -2.8392712220
  H         9.1670613013       -0.8135370904        2.8392462894
  H         9.1669883159        0.8087713872        2.8374696614
  H        10.7850108803       -2.2654078137       -0.0022019113
  H        10.7851294125        2.2654914316        0.0002918635
  H         6.2392445415       -0.8134973632       -2.6895277411
  H         6.2489272904        0.8101138967       -2.6857527241
  H         6.2481604011       -0.8099762221        2.6863054193
  H         6.2384387851        0.8134257250        2.6903048697
  H         7.5510503837       -2.2629117888       -0.0001399501
  H         7.5511924941        2.2628456448        0.0020500229
  H         3.1837374479       -0.8144224344       -2.6913326376
  H         3.1852700650        0.8155830568       -2.6916544526
  H         3.1855909947       -0.8156863236        2.6914384662
  H         3.1840657402        0.8144230800        2.6910932403
  H         4.5949477010       -2.2110805237        0.0008435009
  H         4.5948452500        2.2111903860       -0.0014513942
  H         0.0521498096       -0.8184053381       -2.7036002390