 DBCSR| Multiplication driver                                               BLAS
 DBCSR| Multrec recursion limit                                              512
 DBCSR| Multiplication stack size                                           1000
 DBCSR| Maximum elements for images                                    UNLIMITED
 DBCSR| Multiplicative factor virtual images                                   1
 DBCSR| Multiplication size stacks                                             3
 DBCSR| Number of 3D layers                                               SINGLE
 DBCSR| Use MPI memory allocation                                              T
 DBCSR| Use RMA algorithm                                                      F
 DBCSR| Use Communication thread                                               T
 DBCSR| Communication thread load                                             87


  **** **** ******  **  PROGRAM STARTED AT               2020-04-18 19:23:13.201
 ***** ** ***  *** **   PROGRAM STARTED ON        cpn-u24-26.cbls.ccr.buffalo.ed
 **    ****   ******    PROGRAM STARTED BY                              pavankum
 ***** **    ** ** **   PROGRAM PROCESS ID                                 79612
  **** **  *******  **  PROGRAM STARTED IN /projects/academic/mdupuis2/pavan/MOA
                                           /results_for_paper/1.water-dimer/6-31
                                           G/cp2k

 CP2K| version string:                                          CP2K version 6.1
 CP2K| source code revision number:                                    svn:18464
 CP2K| cp2kflags: libint fftw3 libxc parallel mpi3 scalapack libderiv_max_am1=5 
 CP2K|            libint_max_am=6
 CP2K| is freely available from                            https://www.cp2k.org/
 CP2K| Program compiled at                          Fri Nov 30 14:17:09 EST 2018
 CP2K| Program compiled on                       srv-p22-12.cbls.ccr.buffalo.edu
 CP2K| Program compiled for                                                local
 CP2K| Data directory path    /projects/academic/mdupuis2/pavan/cp2k/cp2k-6.1/da
 CP2K| Input file name                                                 input.inp

 GLOBAL| Force Environment number                                              1
 GLOBAL| Basis set file name                                       ./water.basis
 GLOBAL| Potential file name                                   ./water.potential
 GLOBAL| MM Potential file name                                     MM_POTENTIAL
 GLOBAL| Coordinate file name                                     ./geometry.xyz
 GLOBAL| Method name                                                        CP2K
 GLOBAL| Project name                                                         p_
 GLOBAL| Preferred FFT library                                             FFTW3
 GLOBAL| Preferred diagonalization lib.                                       SL
 GLOBAL| Run type                                                         ENERGY
 GLOBAL| All-to-all communication in single precision                          F
 GLOBAL| FFTs using library dependent lengths                                  T
 GLOBAL| Global print level                                               MEDIUM
 GLOBAL| Total number of message passing processes                            64
 GLOBAL| Number of threads for this process                                    1
 GLOBAL| This output is from process                                           0
 GLOBAL| CPU model name :  Intel(R) Xeon(R) Gold 6130 CPU @ 2.10GHz

 MEMORY| system memory details [Kb]
 MEMORY|                        rank 0           min           max       average
 MEMORY| MemTotal            196332632     196332624     196332632     196332628
 MEMORY| MemFree             182638488     107270812     182638488     144954644
 MEMORY| Buffers                162236        162236        546524        354380
 MEMORY| Cached                7308984       7308980      82094668      44701824
 MEMORY| Slab                   801676        801676        976360        889018
 MEMORY| SReclaimable           514644        514644        690480        602562
 MEMORY| MemLikelyFree       190624352     190602484     190624352     190613410


 *** Fundamental physical constants (SI units) ***

 *** Literature: B. J. Mohr and B. N. Taylor,
 ***             CODATA recommended values of the fundamental physical
 ***             constants: 2006, Web Version 5.1
 ***             http://physics.nist.gov/constants

 Speed of light in vacuum [m/s]                             2.99792458000000E+08
 Magnetic constant or permeability of vacuum [N/A**2]       1.25663706143592E-06
 Electric constant or permittivity of vacuum [F/m]          8.85418781762039E-12
 Planck constant (h) [J*s]                                  6.62606896000000E-34
 Planck constant (h-bar) [J*s]                              1.05457162825177E-34
 Elementary charge [C]                                      1.60217648700000E-19
 Electron mass [kg]                                         9.10938215000000E-31
 Electron g factor [ ]                                     -2.00231930436220E+00
 Proton mass [kg]                                           1.67262163700000E-27
 Fine-structure constant                                    7.29735253760000E-03
 Rydberg constant [1/m]                                     1.09737315685270E+07
 Avogadro constant [1/mol]                                  6.02214179000000E+23
 Boltzmann constant [J/K]                                   1.38065040000000E-23
 Atomic mass unit [kg]                                      1.66053878200000E-27
 Bohr radius [m]                                            5.29177208590000E-11

 *** Conversion factors ***

 [u] -> [a.u.]                                              1.82288848426455E+03
 [Angstrom] -> [Bohr] = [a.u.]                              1.88972613288564E+00
 [a.u.] = [Bohr] -> [Angstrom]                              5.29177208590000E-01
 [a.u.] -> [s]                                              2.41888432650478E-17
 [a.u.] -> [fs]                                             2.41888432650478E-02
 [a.u.] -> [J]                                              4.35974393937059E-18
 [a.u.] -> [N]                                              8.23872205491840E-08
 [a.u.] -> [K]                                              3.15774647902944E+05
 [a.u.] -> [kJ/mol]                                         2.62549961709828E+03
 [a.u.] -> [kcal/mol]                                       6.27509468713739E+02
 [a.u.] -> [Pa]                                             2.94210107994716E+13
 [a.u.] -> [bar]                                            2.94210107994716E+08
 [a.u.] -> [atm]                                            2.90362800883016E+08
 [a.u.] -> [eV]                                             2.72113838565563E+01
 [a.u.] -> [Hz]                                             6.57968392072181E+15
 [a.u.] -> [1/cm] (wave numbers)                            2.19474631370540E+05
 [a.u./Bohr**2] -> [1/cm]                                   5.14048714338585E+03
 

 CELL_TOP| Volume [angstrom^3]:                                         3375.000
 CELL_TOP| Vector a [angstrom    15.000     0.000     0.000    |a| =      15.000
 CELL_TOP| Vector b [angstrom     0.000    15.000     0.000    |b| =      15.000
 CELL_TOP| Vector c [angstrom     0.000     0.000    15.000    |c| =      15.000
 CELL_TOP| Angle (b,c), alpha [degree]:                                   90.000
 CELL_TOP| Angle (a,c), beta  [degree]:                                   90.000
 CELL_TOP| Angle (a,b), gamma [degree]:                                   90.000
 CELL_TOP| Numerically orthorhombic:                                         YES

 CELL| Volume [angstrom^3]:                                             3375.000
 CELL| Vector a [angstrom]:      15.000     0.000     0.000    |a| =      15.000
 CELL| Vector b [angstrom]:       0.000    15.000     0.000    |b| =      15.000
 CELL| Vector c [angstrom]:       0.000     0.000    15.000    |c| =      15.000
 CELL| Angle (b,c), alpha [degree]:                                       90.000
 CELL| Angle (a,c), beta  [degree]:                                       90.000
 CELL| Angle (a,b), gamma [degree]:                                       90.000
 CELL| Numerically orthorhombic:                                             YES

 CELL_REF| Volume [angstrom^3]:                                         3375.000
 CELL_REF| Vector a [angstrom    15.000     0.000     0.000    |a| =      15.000
 CELL_REF| Vector b [angstrom     0.000    15.000     0.000    |b| =      15.000
 CELL_REF| Vector c [angstrom     0.000     0.000    15.000    |c| =      15.000
 CELL_REF| Angle (b,c), alpha [degree]:                                   90.000
 CELL_REF| Angle (a,c), beta  [degree]:                                   90.000
 CELL_REF| Angle (a,b), gamma [degree]:                                   90.000
 CELL_REF| Numerically orthorhombic:                                         YES

 *******************************************************************************
 *******************************************************************************
 **                                                                           **
 **     #####                         ##              ##                      **
 **    ##   ##            ##          ##              ##                      **
 **   ##     ##                       ##            ######                    **
 **   ##     ##  ##   ##  ##   #####  ##  ##   ####   ##    #####    #####    **
 **   ##     ##  ##   ##  ##  ##      ## ##   ##      ##   ##   ##  ##   ##   **
 **   ##  ## ##  ##   ##  ##  ##      ####     ###    ##   ######   ######    **
 **    ##  ###   ##   ##  ##  ##      ## ##      ##   ##   ##       ##        **
 **     #######   #####   ##   #####  ##  ##  ####    ##    #####   ##        **
 **           ##                                                    ##        **
 **                                                                           **
 **                                                ... make the atoms dance   **
 **                                                                           **
 **            Copyright (C) by CP2K developers group (2000 - 2018)           **
 **                                                                           **
 *******************************************************************************

 DFT| Spin restricted Kohn-Sham (RKS) calculation                            RKS
 DFT| Multiplicity                                                             1
 DFT| Number of spin states                                                    1
 DFT| Charge                                                                   0
 DFT| Self-interaction correction (SIC)                                       NO
 DFT| Cutoffs: density                                              1.000000E-10
 DFT|          gradient                                             1.000000E-10
 DFT|          tau                                                  1.000000E-10
 DFT|          cutoff_smoothing_range                               0.000000E+00
 DFT| XC density smoothing                                                  NONE
 DFT| XC derivatives                                                          PW
 FUNCTIONAL| NO EXCHANGE-CORRELATION FUNCTIONAL USED.

 QS| Method:                                                                GAPW
 QS| Density plane wave grid type                        NON-SPHERICAL FULLSPACE
 QS| Number of grid levels:                                                   10
 QS| Density cutoff [a.u.]:                                                300.0
 QS| Multi grid cutoff [a.u.]: 1) grid level                               300.0
 QS|                           2) grid level                               100.0
 QS|                           3) grid level                                33.3
 QS|                           4) grid level                                11.1
 QS|                           5) grid level                                 3.7
 QS|                           6) grid level                                 1.2
 QS|                           7) grid level                                 0.4
 QS|                           8) grid level                                 0.1
 QS|                           9) grid level                                 0.0
 QS|                          10) grid level                                 0.0
 QS| Grid level progression factor:                                          3.0
 QS| Relative density cutoff [a.u.]:                                        30.0
 QS| Consistent realspace mapping and integration 
 QS| Interaction thresholds: eps_pgf_orb:                                1.0E-10
 QS|                         eps_filter_matrix:                          0.0E+00
 QS|                         eps_core_charge:                            1.0E-14
 QS|                         eps_rho_gspace:                             1.0E-12
 QS|                         eps_rho_rspace:                             1.0E-12
 QS|                         eps_gvg_rspace:                             1.0E-06
 QS|                         eps_ppl:                                    1.0E-02
 QS|                         eps_ppnl:                                   1.0E-08
 QS| GAPW|                   eps_fit:                                    1.0E-04
 QS| GAPW|                   eps_iso:                                    1.0E-12
 QS| GAPW|                   eps_svd:                                    1.0E-08
 QS| GAPW|                   eps_cpc:                                    1.0E-12
 QS| GAPW|   atom-r-grid: quadrature:                 GC_LOG                        
 QS| GAPW|      atom-s-grid:  max l :                                          2
 QS| GAPW|      max_l_rho0 :                                                   2


 ATOMIC KIND INFORMATION

  1. Atomic kind: O                                     Number of atoms:       2

     Orbital Basis Set                                                     6-31G

       Number of orbital shell sets:                                           3
       Number of orbital shells:                                               5
       Number of primitive Cartesian functions:                               10
       Number of Cartesian basis functions:                                    9
       Number of spherical basis functions:                                    9
       Norm type:                                                              2

       Normalised Cartesian orbitals:

                        Set   Shell   Orbital            Exponent    Coefficient

                          1       1    1s             5484.671660       0.831724
                                                       825.234946       1.530816
                                                       188.046958       2.477149
                                                        52.964500       3.256281
                                                        16.897570       2.792893
                                                         5.799635       0.954938

                          2       1    1s               15.539616      -0.617934
                                                         3.599934      -0.275721
                                                         1.013762       0.814208

                          2       2    2px              15.539616       3.116944
                                                         3.599934       2.401438
                                                         1.013762       1.054360
                          2       2    2py              15.539616       3.116944
                                                         3.599934       2.401438
                                                         1.013762       1.054360
                          2       2    2pz              15.539616       3.116944
                                                         3.599934       2.401438
                                                         1.013762       1.054360

                          3       1    1s                0.270006       0.266956

                          3       2    2px               0.270006       0.277432
                          3       2    2py               0.270006       0.277432
                          3       2    2pz               0.270006       0.277432

     The atoms of this atomic kind are PAW atoms (GAPW):
       Hard Gaussian function radius:                                      1.512
       Rho0 radius:                                                        1.512
       Maximum GTO radius used for PAW projector construction:            24.566

     GAPW Soft Basis Set                                              6-31G_soft

       Number of orbital shell sets:                                           3
       Number of orbital shells:                                               5
       Number of primitive Cartesian functions:                                3
       Number of Cartesian basis functions:                                    9
       Number of spherical basis functions:                                    9
       Norm type:                                                              2

       Normalised Cartesian orbitals:

                        Set   Shell   Orbital            Exponent    Coefficient

                          1       1    1s         

                          2       1    1s                3.599934      -0.275721
                                                         1.013762       0.814208

                          2       2    2px               3.599934       2.401438
                                                         1.013762       1.054360
                          2       2    2py               3.599934       2.401438
                                                         1.013762       1.054360
                          2       2    2pz               3.599934       2.401438
                                                         1.013762       1.054360

                          3       1    1s                0.270006       0.266956

                          3       2    2px               0.270006       0.277432
                          3       2    2py               0.270006       0.277432
                          3       2    2pz               0.270006       0.277432

     AE Potential information for                                            ALL

       Description:                                       All-electron potential
                                          Krack, Parrinello, PCCP 2, 2105 (2000)

       Gaussian exponent of the core charge distribution:               8.154466
       Electronic configuration (s p d ...):                           4   4   0

  2. Atomic kind: H                                     Number of atoms:       4

     Orbital Basis Set                                                     6-31G

       Number of orbital shell sets:                                           2
       Number of orbital shells:                                               2
       Number of primitive Cartesian functions:                                4
       Number of Cartesian basis functions:                                    2
       Number of spherical basis functions:                                    2
       Norm type:                                                              2

       Normalised Cartesian orbitals:

                        Set   Shell   Orbital            Exponent    Coefficient

                          1       1    1s               18.731137       0.214935
                                                         2.825394       0.364571
                                                         0.640122       0.415051

                          2       1    1s                0.161278       0.181381

     The atoms of this atomic kind are PAW atoms (GAPW):
       Hard Gaussian function radius:                                      1.200
       Rho0 radius:                                                        1.200
       Maximum GTO radius used for PAW projector construction:            24.566

     GAPW Soft Basis Set                                              6-31G_soft

       Number of orbital shell sets:                                           2
       Number of orbital shells:                                               2
       Number of primitive Cartesian functions:                                3
       Number of Cartesian basis functions:                                    2
       Number of spherical basis functions:                                    2
       Norm type:                                                              2

       Normalised Cartesian orbitals:

                        Set   Shell   Orbital            Exponent    Coefficient

                          1       1    1s                2.825394       0.364571
                                                         0.640122       0.415051

                          2       1    1s                0.161278       0.181381

     AE Potential information for                                            ALL

       Description:                                       All-electron potential
                                          Krack, Parrinello, PCCP 2, 2105 (2000)

       Gaussian exponent of the core charge distribution:              12.500000
       Electronic configuration (s p d ...):                           1   0   0


 MOLECULE KIND INFORMATION


 All atoms are their own molecule, skipping detailed information


 TOTAL NUMBERS AND MAXIMUM NUMBERS

  Total number of            - Atomic kinds:                                   2
                             - Atoms:                                          6
                             - Shell sets:                                    14
                             - Shells:                                        18
                             - Primitive Cartesian functions:                 36
                             - Cartesian basis functions:                     26
                             - Spherical basis functions:                     26

  Maximum angular momentum of the orbital basis functions:                     1


 MODULE QUICKSTEP:  ATOMIC COORDINATES IN angstrom

  Atom  Kind  Element       X           Y           Z          Z(eff)       Mass

       1     1 O    8    6.048548    7.500000    7.364043      8.00      15.9994
       2     2 H    1    6.995636    7.500000    7.390269      1.00       1.0079
       3     2 H    1    5.769631    7.500000    8.264225      1.00       1.0079
       4     1 O    8    9.005849    7.500000    7.254140      8.00      15.9994
       5     2 H    1    9.230369    8.256063    6.735775      1.00       1.0079
       6     2 H    1    9.230369    6.743937    6.735775      1.00       1.0079




 SCF PARAMETERS         Density guess:                                   RESTART
                        --------------------------------------------------------
                        max_scf:                                              50
                        max_scf_history:                                       0
                        max_diis:                                              4
                        --------------------------------------------------------
                        eps_scf:                                        1.00E-09
                        eps_scf_history:                                0.00E+00
                        eps_diis:                                       1.00E-01
                        eps_eigval:                                     1.00E-05
                        --------------------------------------------------------
                        level_shift [a.u.]:                                 0.00
                        --------------------------------------------------------
                        Mixing method:                           DIRECT_P_MIXING
                        --------------------------------------------------------
                        Outer loop SCF in use 
                        No variables optimised in outer loop
                        eps_scf                                         1.00E-09
                        max_scf                                                1
                        No outer loop optimization
                        step_size                                       5.00E-01

 PW_GRID| Information for grid number                                          1
 PW_GRID| Grid distributed over                                    64 processors
 PW_GRID| Real space group dimensions                                    64    1
 PW_GRID| the grid is blocked:                                                NO
 PW_GRID| Cutoff [a.u.]                                                    300.0
 PW_GRID| spherical cutoff:                                                   NO
 PW_GRID|   Bounds   1           -112     111                Points:         224
 PW_GRID|   Bounds   2           -112     111                Points:         224
 PW_GRID|   Bounds   3           -112     111                Points:         224
 PW_GRID| Volume element (a.u.^3)  0.2026E-02     Volume (a.u.^3)     22775.6292
 PW_GRID| Grid span                                                    FULLSPACE
 PW_GRID|   Distribution                         Average         Max         Min
 PW_GRID|   G-Vectors                           175616.0      175616      175616
 PW_GRID|   G-Rays                                 784.0         784         784
 PW_GRID|   Real Space Points                   175616.0      200704      150528

 PW_GRID| Information for grid number                                          2
 PW_GRID| Grid distributed over                                    64 processors
 PW_GRID| Real space group dimensions                                    64    1
 PW_GRID| the grid is blocked:                                                NO
 PW_GRID| Cutoff [a.u.]                                                    100.0
 PW_GRID| spherical cutoff:                                                   NO
 PW_GRID|   Bounds   1            -64      63                Points:         128
 PW_GRID|   Bounds   2            -64      63                Points:         128
 PW_GRID|   Bounds   3            -64      63                Points:         128
 PW_GRID| Volume element (a.u.^3)  0.1086E-01     Volume (a.u.^3)     22775.6292
 PW_GRID| Grid span                                                    FULLSPACE
 PW_GRID|   Distribution                         Average         Max         Min
 PW_GRID|   G-Vectors                            32768.0       32896       32640
 PW_GRID|   G-Rays                                 256.0         257         255
 PW_GRID|   Real Space Points                    32768.0       32768       32768

 PW_GRID| Information for grid number                                          3
 PW_GRID| Grid distributed over                                    64 processors
 PW_GRID| Real space group dimensions                                    64    1
 PW_GRID| the grid is blocked:                                                NO
 PW_GRID| Cutoff [a.u.]                                                     33.3
 PW_GRID| spherical cutoff:                                                   NO
 PW_GRID|   Bounds   1            -37      37                Points:          75
 PW_GRID|   Bounds   2            -37      37                Points:          75
 PW_GRID|   Bounds   3            -37      37                Points:          75
 PW_GRID| Volume element (a.u.^3)  0.5399E-01     Volume (a.u.^3)     22775.6292
 PW_GRID| Grid span                                                    FULLSPACE
 PW_GRID|   Distribution                         Average         Max         Min
 PW_GRID|   G-Vectors                             6591.8        6675        6525
 PW_GRID|   G-Rays                                  87.9          89          87
 PW_GRID|   Real Space Points                     6591.8       11250        5625

 PW_GRID| Information for grid number                                          4
 PW_GRID| Grid distributed over                                    64 processors
 PW_GRID| Real space group dimensions                                     8    8
 PW_GRID| the grid is blocked:                                                NO
 PW_GRID| Cutoff [a.u.]                                                     11.1
 PW_GRID| spherical cutoff:                                                   NO
 PW_GRID|   Bounds   1            -22      21                Points:          44
 PW_GRID|   Bounds   2            -22      21                Points:          44
 PW_GRID|   Bounds   3            -22      21                Points:          44
 PW_GRID| Volume element (a.u.^3)  0.2674         Volume (a.u.^3)     22775.6292
 PW_GRID| Grid span                                                    FULLSPACE
 PW_GRID|   Distribution                         Average         Max         Min
 PW_GRID|   G-Vectors                             1331.0        1364        1276
 PW_GRID|   G-Rays                                  30.2          31          29
 PW_GRID|   Real Space Points                     1331.0        1584        1100

 PW_GRID| Information for grid number                                          5
 PW_GRID| Grid distributed over                                    64 processors
 PW_GRID| Real space group dimensions                                     8    8
 PW_GRID| the grid is blocked:                                                NO
 PW_GRID| Cutoff [a.u.]                                                      3.7
 PW_GRID| spherical cutoff:                                                   NO
 PW_GRID|   Bounds   1            -12      12                Points:          25
 PW_GRID|   Bounds   2            -12      12                Points:          25
 PW_GRID|   Bounds   3            -12      12                Points:          25
 PW_GRID| Volume element (a.u.^3)   1.458         Volume (a.u.^3)     22775.6292
 PW_GRID| Grid span                                                    FULLSPACE
 PW_GRID|   Distribution                         Average         Max         Min
 PW_GRID|   G-Vectors                              244.1         275         225
 PW_GRID|   G-Rays                                   9.8          11           9
 PW_GRID|   Real Space Points                      244.1         400         225

 PW_GRID| Information for grid number                                          6
 PW_GRID| Grid distributed over                                    64 processors
 PW_GRID| Real space group dimensions                                     8    8
 PW_GRID| the grid is blocked:                                                NO
 PW_GRID| Cutoff [a.u.]                                                      1.2
 PW_GRID| spherical cutoff:                                                   NO
 PW_GRID|   Bounds   1             -7       7                Points:          15
 PW_GRID|   Bounds   2             -7       7                Points:          15
 PW_GRID|   Bounds   3             -7       7                Points:          15
 PW_GRID| Volume element (a.u.^3)   6.748         Volume (a.u.^3)     22775.6292
 PW_GRID| Grid span                                                    FULLSPACE
 PW_GRID|   Distribution                         Average         Max         Min
 PW_GRID|   G-Vectors                               52.7          75          30
 PW_GRID|   G-Rays                                   3.5           5           2
 PW_GRID|   Real Space Points                       52.7          60          15

 PW_GRID| Information for grid number                                          7
 PW_GRID| Grid distributed over                                    64 processors
 PW_GRID| Real space group dimensions                                     8    8
 PW_GRID| the grid is blocked:                                                NO
 PW_GRID| Cutoff [a.u.]                                                      0.4
 PW_GRID| spherical cutoff:                                                   NO
 PW_GRID|   Bounds   1             -4       4                Points:           9
 PW_GRID|   Bounds   2             -4       4                Points:           9
 PW_GRID|   Bounds   3             -4       4                Points:           9
 PW_GRID| Volume element (a.u.^3)   31.24         Volume (a.u.^3)     22775.6292
 PW_GRID| Grid span                                                    FULLSPACE
 PW_GRID|   Distribution                         Average         Max         Min
 PW_GRID|   G-Vectors                               11.4          18           0
 PW_GRID|   G-Rays                                   1.3           2           0
 PW_GRID|   Real Space Points                       11.4          36           9

 PW_GRID| Information for grid number                                          8
 PW_GRID| Grid distributed over                                    64 processors
 PW_GRID| Real space group dimensions                                     8    8
 PW_GRID| the grid is blocked:                                                NO
 PW_GRID| Cutoff [a.u.]                                                      0.1
 PW_GRID| spherical cutoff:                                                   NO
 PW_GRID|   Bounds   1             -2       2                Points:           5
 PW_GRID|   Bounds   2             -2       2                Points:           5
 PW_GRID|   Bounds   3             -2       2                Points:           5
 PW_GRID| Volume element (a.u.^3)   182.2         Volume (a.u.^3)     22775.6292
 PW_GRID| Grid span                                                    FULLSPACE
 PW_GRID|   Distribution                         Average         Max         Min
 PW_GRID|   G-Vectors                                2.0           5           0
 PW_GRID|   G-Rays                                   0.4           1           0
 PW_GRID|   Real Space Points                        2.0           5           0

 PW_GRID| Information for grid number                                          9
 PW_GRID| Grid distributed over                                    64 processors
 PW_GRID| Real space group dimensions                                     8    8
 PW_GRID| the grid is blocked:                                                NO
 PW_GRID| Cutoff [a.u.]                                                      0.0
 PW_GRID| spherical cutoff:                                                   NO
 PW_GRID|   Bounds   1             -1       1                Points:           3
 PW_GRID|   Bounds   2             -1       1                Points:           3
 PW_GRID|   Bounds   3             -1       1                Points:           3
 PW_GRID| Volume element (a.u.^3)   843.5         Volume (a.u.^3)     22775.6292
 PW_GRID| Grid span                                                    FULLSPACE
 PW_GRID|   Distribution                         Average         Max         Min
 PW_GRID|   G-Vectors                                0.4           3           0
 PW_GRID|   G-Rays                                   0.1           1           0
 PW_GRID|   Real Space Points                        0.4           3           0

 PW_GRID| Information for grid number                                         10
 PW_GRID| Grid distributed over                                    64 processors
 PW_GRID| Real space group dimensions                                     8    8
 PW_GRID| the grid is blocked:                                                NO
 PW_GRID| Cutoff [a.u.]                                                      0.0
 PW_GRID| spherical cutoff:                                                   NO
 PW_GRID|   Bounds   1              0       0                Points:           1
 PW_GRID|   Bounds   2              0       0                Points:           1
 PW_GRID|   Bounds   3              0       0                Points:           1
 PW_GRID| Volume element (a.u.^3)  0.2278E+05     Volume (a.u.^3)     22775.6292
 PW_GRID| Grid span                                                    FULLSPACE
 PW_GRID|   Distribution                         Average         Max         Min
 PW_GRID|   G-Vectors                                0.0           1           0
 PW_GRID|   G-Rays                                   0.0           1           0
 PW_GRID|   Real Space Points                        0.0           1           0

 POISSON| Solver                                                         WAVELET
 POISSON| Wavelet| Scaling function                                           40
 POISSON| Periodicity                                                       NONE

 RS_GRID| Information for grid number                                          1
 RS_GRID|   Bounds   1           -112     111                Points:         224
 RS_GRID|   Bounds   2           -112     111                Points:         224
 RS_GRID|   Bounds   3           -112     111                Points:         224
 RS_GRID| Real space distribution over                                  4 groups
 RS_GRID| Real space distribution along direction                              1
 RS_GRID| Border size                                                         25
 RS_GRID| Real space distribution over                                  4 groups
 RS_GRID| Real space distribution along direction                              2
 RS_GRID| Border size                                                         25
 RS_GRID| Real space distribution over                                  4 groups
 RS_GRID| Real space distribution along direction                              3
 RS_GRID| Border size                                                         25
 RS_GRID|   Distribution                         Average         Max         Min
 RS_GRID|   Planes                                 106.0         106         106
 RS_GRID|   Distribution                         Average         Max         Min
 RS_GRID|   Planes                                 106.0         106         106
 RS_GRID|   Distribution                         Average         Max         Min
 RS_GRID|   Planes                                 106.0         106         106

 RS_GRID| Information for grid number                                          2
 RS_GRID|   Bounds   1            -64      63                Points:         128
 RS_GRID|   Bounds   2            -64      63                Points:         128
 RS_GRID|   Bounds   3            -64      63                Points:         128
 RS_GRID| Real space distribution over                                  4 groups
 RS_GRID| Real space distribution along direction                              1
 RS_GRID| Border size                                                         25
 RS_GRID| Real space distribution over                                  4 groups
 RS_GRID| Real space distribution along direction                              2
 RS_GRID| Border size                                                         25
 RS_GRID| Real space distribution over                                  4 groups
 RS_GRID| Real space distribution along direction                              3
 RS_GRID| Border size                                                         25
 RS_GRID|   Distribution                         Average         Max         Min
 RS_GRID|   Planes                                  82.0          82          82
 RS_GRID|   Distribution                         Average         Max         Min
 RS_GRID|   Planes                                  82.0          82          82
 RS_GRID|   Distribution                         Average         Max         Min
 RS_GRID|   Planes                                  82.0          82          82

 RS_GRID| Information for grid number                                          3
 RS_GRID|   Bounds   1            -37      37                Points:          75
 RS_GRID|   Bounds   2            -37      37                Points:          75
 RS_GRID|   Bounds   3            -37      37                Points:          75
 RS_GRID| Real space fully replicated
 RS_GRID| Group size                                                           1

 RS_GRID| Information for grid number                                          4
 RS_GRID|   Bounds   1            -22      21                Points:          44
 RS_GRID|   Bounds   2            -22      21                Points:          44
 RS_GRID|   Bounds   3            -22      21                Points:          44
 RS_GRID| Real space fully replicated
 RS_GRID| Group size                                                           1

 RS_GRID| Information for grid number                                          5
 RS_GRID|   Bounds   1            -12      12                Points:          25
 RS_GRID|   Bounds   2            -12      12                Points:          25
 RS_GRID|   Bounds   3            -12      12                Points:          25
 RS_GRID| Real space fully replicated
 RS_GRID| Group size                                                           1

 RS_GRID| Information for grid number                                          6
 RS_GRID|   Bounds   1             -7       7                Points:          15
 RS_GRID|   Bounds   2             -7       7                Points:          15
 RS_GRID|   Bounds   3             -7       7                Points:          15
 RS_GRID| Real space fully replicated
 RS_GRID| Group size                                                           1

 RS_GRID| Information for grid number                                          7
 RS_GRID|   Bounds   1             -4       4                Points:           9
 RS_GRID|   Bounds   2             -4       4                Points:           9
 RS_GRID|   Bounds   3             -4       4                Points:           9
 RS_GRID| Real space fully replicated
 RS_GRID| Group size                                                           1

 RS_GRID| Information for grid number                                          8
 RS_GRID|   Bounds   1             -2       2                Points:           5
 RS_GRID|   Bounds   2             -2       2                Points:           5
 RS_GRID|   Bounds   3             -2       2                Points:           5
 RS_GRID| Real space fully replicated
 RS_GRID| Group size                                                           1

 RS_GRID| Information for grid number                                          9
 RS_GRID|   Bounds   1             -1       1                Points:           3
 RS_GRID|   Bounds   2             -1       1                Points:           3
 RS_GRID|   Bounds   3             -1       1                Points:           3
 RS_GRID| Real space fully replicated
 RS_GRID| Group size                                                           1

 RS_GRID| Information for grid number                                         10
 RS_GRID|   Bounds   1              0       0                Points:           1
 RS_GRID|   Bounds   2              0       0                Points:           1
 RS_GRID|   Bounds   3              0       0                Points:           1
 RS_GRID| Real space fully replicated
 RS_GRID| Group size                                                           1

  HFX_INFO| Replica ID:                                                        1
  HFX_INFO| EPS_SCHWARZ:                                                 1.0E-10
  HFX_INFO| EPS_SCHWARZ_FORCES                                           1.0E-06
  HFX_INFO| EPS_STORAGE_SCALING:                                         1.0E+00
  HFX_INFO| NBINS:                                                            64
  HFX_INFO| BLOCK_SIZE:                                                        1
  HFX_INFO| FRACTION:                                               1.0000000000
  HFX_INFO| Interaction Potential:                                       COULOMB
  HFX_INFO| Number of periodic shells considered:                           NONE
  HFX_INFO| Number of periodic cells considered:                            NONE


 Number of electrons:                                                         20
 Number of occupied orbitals:                                                 10
 Number of molecular orbitals:                                                10

 Number of orbital functions:                                                 26
 Number of independent orbital functions:                                     26

 Extrapolation method: initial_guess

 *** WARNING in qs_initial_guess.F:263 :: User requested to restart the    ***
 *** wavefunction from the file named: ./p_-RESTART.wfn. This file does    ***
 *** not exist. Please check the existence of the file or change properly  ***
 *** the value of the keyword WFN_RESTART_FILE_NAME. Calculation continues ***
 *** using ATOMIC GUESS.                                                   ***


 Atomic guess: The first density matrix is obtained in terms of atomic orbitals
               and electronic configurations assigned to each atomic kind

 Guess for atomic kind: O

 Electronic structure
    Total number of core electrons                                          0.00
    Total number of valence electrons                                       8.00
    Total number of electrons                                               8.00
    Multiplicity                                                   not specified
    S      2.00  2.00
    P      4.00


 *******************************************************************************
                  Iteration          Convergence                     Energy [au]
 *******************************************************************************
                          1         2.18571                     -73.284931831410
                          2         2.38469                     -73.529925662521
                          3        0.865951E-01                 -74.425044965485
                          4        0.406367E-03                 -74.426129469880
                          5        0.142015E-03                 -74.426129473071
                          6        0.521222E-06                 -74.426129475952

 Energy components [Hartree]           Total Energy ::          -74.426129475952
                                        Band Energy ::          -40.441472394299
                                     Kinetic Energy ::           74.391654287772
                                   Potential Energy ::         -148.817783763724
                                      Virial (-V/T) ::            2.000463428170
                                        Core Energy ::         -103.093739912104
                                          XC Energy ::           -7.797709278605
                                     Coulomb Energy ::           36.465319714758

 Orbital energies  State     L     Occupation   Energy[a.u.]          Energy[eV]

                       1     0          2.000     -18.744688         -510.068899
                       2     0          2.000      -0.849262          -23.109592

                       1     1          4.000      -0.313393           -8.527861


 Total Electron Density at R=0:                                       291.748243

 Guess for atomic kind: H

 Electronic structure
    Total number of core electrons                                          0.00
    Total number of valence electrons                                       1.00
    Total number of electrons                                               1.00
    Multiplicity                                                   not specified
    S      1.00


 *******************************************************************************
                  Iteration          Convergence                     Energy [au]
 *******************************************************************************
                          1        0.502405E-02                  -0.441325545302
                          2        0.522833E-03                  -0.441349398950
                          3        0.301100E-06                  -0.441349659850

 Energy components [Hartree]           Total Energy ::           -0.441349659850
                                        Band Energy ::           -0.216801195853
                                     Kinetic Energy ::            0.454184052333
                                   Potential Energy ::           -0.895533712183
                                      Virial (-V/T) ::            1.971741868926
                                        Core Energy ::           -0.496336881879
                                          XC Energy ::           -0.243413638209
                                     Coulomb Energy ::            0.298400860239

 Orbital energies  State     L     Occupation   Energy[a.u.]          Energy[eV]

                       1     0          1.000      -0.216801           -5.899461


 Total Electron Density at R=0:                                         0.248919
 Re-scaling the density matrix to get the right number of electrons
                  # Electrons              Trace(P)               Scaling factor
                           20                20.000                        1.000


 SCF WAVEFUNCTION OPTIMIZATION

  Step     Update method      Time    Convergence         Total energy    Change
  ------------------------------------------------------------------------------

  HFX_MEM_INFO| Est. max. program size before HFX [MiB]:                     219
  HFX_MEM_INFO| Number of cart. primitive ERI's calculated:              1911634
  HFX_MEM_INFO| Number of sph. ERI's calculated:                           99402
  HFX_MEM_INFO| Number of sph. ERI's stored in-core:                       99402
  HFX_MEM_INFO| Number of sph. ERI's stored on disk:                           0
  HFX_MEM_INFO| Number of sph. ERI's calculated on the fly:                    0
  HFX_MEM_INFO| Total memory consumption ERI's RAM [MiB]:                      1
  HFX_MEM_INFO| Whereof max-vals [MiB]:                                        1
  HFX_MEM_INFO| Total compression factor ERI's RAM:                         1.45
  HFX_MEM_INFO| Total memory consumption ERI's disk [MiB]:                     0
  HFX_MEM_INFO| Total compression factor ERI's disk:                        0.00
  HFX_MEM_INFO| Size of density/Fock matrix [MiB]:                             0
  HFX_MEM_INFO| Size of buffers [MiB]:                                         0
  HFX_MEM_INFO| Est. max. program size after HFX  [MiB]:                     220

     1 P_Mix/Diag. 0.40E+00    2.1     0.48720653      -151.9722447531 -1.52E+02
     2 P_Mix/Diag. 0.40E+00    0.7     0.28685183      -151.8672224424  1.05E-01
     3 P_Mix/Diag. 0.40E+00    0.7     0.17113723      -151.8667399396  4.83E-04
     4 P_Mix/Diag. 0.40E+00    0.5     0.10274925      -151.8933038408 -2.66E-02
     5 P_Mix/Diag. 0.40E+00    0.5     0.06187615      -151.9201505510 -2.68E-02
     6 DIIS/Diag.  0.14E-01    0.5     0.04193109      -151.9406639330 -2.05E-02
     7 DIIS/Diag.  0.19E-02    0.6     0.00115053      -151.9791556032 -3.85E-02
     8 DIIS/Diag.  0.22E-02    0.5     0.00087469      -151.9791550615  5.42E-07
     9 DIIS/Diag.  0.91E-03    0.5     0.00034500      -151.9791568555 -1.79E-06
    10 DIIS/Diag.  0.34E-04    0.5     0.00001463      -151.9791571252 -2.70E-07
    11 DIIS/Diag.  0.12E-04    0.5     0.00000682      -151.9791571262 -1.06E-09
    12 DIIS/Diag.  0.33E-05    0.5     0.00000150      -151.9791571263 -1.02E-10
    13 DIIS/Diag.  0.19E-05    0.5     0.00000095      -151.9791571263 -7.84E-12
    14 DIIS/Diag.  0.43E-06    0.6     0.00000025      -151.9791571263 -1.65E-12
    15 DIIS/Diag.  0.15E-06    0.6     0.00000004      -151.9791571263 -8.53E-14
    16 DIIS/Diag.  0.69E-07    0.5     0.00000003      -151.9791571263 -2.84E-14
    17 DIIS/Diag.  0.11E-06    0.5     0.00000005      -151.9791571263 -2.84E-14
    18 DIIS/Diag.  0.49E-07    0.5     9.6803E-09      -151.9791571263 -1.99E-13
    19 DIIS/Diag.  0.45E-07    0.5     0.00000001      -151.9791571263  2.27E-13
    20 DIIS/Diag.  0.21E-07    0.5     5.3714E-09      -151.9791571263 -2.84E-14
    21 DIIS/Diag.  0.16E-07    0.8     5.0042E-09      -151.9791571263 -5.68E-14
    22 DIIS/Diag.  0.10E-07    0.5     2.1227E-09      -151.9791571263 -8.53E-14
    23 DIIS/Diag.  0.11E-07    0.5     1.9694E-09      -151.9791571263  1.71E-13
    24 DIIS/Diag.  0.96E-08    0.5     1.9823E-09      -151.9791571263 -1.71E-13
    25 DIIS/Diag.  0.65E-08    0.5     1.6413E-09      -151.9791571263 -5.68E-14
    26 DIIS/Diag.  0.39E-08    0.6     8.7291E-10      -151.9791571263  1.42E-13

  *** SCF run converged in    26 steps ***


  Electronic density on regular grids:        -16.0250001147        3.9749998853
  Core density on regular grids:               20.0000000000       -0.0000000000
  Hard and soft densities (Lebedev):          -29.5375848271      -25.5625863476
  Total Rho_soft + Rho1_hard - Rho1_soft      -19.9999985941
  Total charge density (r-space):               0.0000014059
  Total Rho_soft + Rho0_soft (g-space):        -0.0000018216

  Overlap energy of the core charge distribution:               0.00000037084277
  Self energy of the core charge distribution:               -151.46213629121465
  Core Hamiltonian energy:                                    -10.68795068398540
  Hartree energy:                                              43.66388672951931
  Exchange-correlation energy:                                  0.00000000000000
  Hartree-Fock Exchange energy:                               -17.94043843236674

  GAPW| Exc from hard and soft atomic rho1:                     0.00000000000000
  GAPW| local Eh = 1 center integrals:                        -15.55251881912946

  Total energy:                                              -151.97915712633417

  outer SCF iter =    1 RMS gradient =   0.00E+00 energy =       -151.9791571263
  outer SCF loop converged in   1 iterations or   26 steps


 !-----------------------------------------------------------------------------!
                     Mulliken Population Analysis

 #  Atom  Element  Kind  Atomic population                           Net charge
       1     O        1          8.851056                             -0.851056
       2     H        2          0.559261                              0.440739
       3     H        2          0.615918                              0.384082
       4     O        1          8.801871                             -0.801871
       5     H        2          0.585947                              0.414053
       6     H        2          0.585947                              0.414053
 # Total charge                             20.000000                  0.000000

 !-----------------------------------------------------------------------------!

 !-----------------------------------------------------------------------------!
                           Hirshfeld Charges

  #Atom  Element  Kind  Ref Charge     Population                    Net charge
      1       O      1       8.000          9.164                        -1.164
      2       H      2       1.000          0.403                         0.597
      3       H      2       1.000          0.421                         0.579
      4       O      1       8.000          9.185                        -1.185
      5       H      2       1.000          0.413                         0.587
      6       H      2       1.000          0.413                         0.587

  Total Charge                                                            0.001
 !-----------------------------------------------------------------------------!
  
  Eigenvalues of the occupied subspace spin            1
 ---------------------------------------------
     -20.58911456     -20.52195613      -1.39352704      -1.32924253
      -0.75213090      -0.69281989      -0.59506111      -0.54373632
      -0.51852819      -0.47081856
 Fermi Energy [eV] :  -12.811625
  
  Lowest eigenvalues of the unoccupied subspace spin            1
 ---------------------------------------------

 -----------------------------------------------
             MAXIMAL ORBITAL ANALYSIS           
 -----------------------------------------------
 SIZE OF ALPHA ORBS IS           10
 INPUT TAGS:
 NFRG =            2
 LFRG =            3           3
 IFRG =            1           2           3           4           5           6
 NOMOA =            0           0           0           0           0           0           0           0           0           0
 NOMOAA =            0           0           0           0           0           0           0           0           0           0
 NOMOAB = 
 IF MO_CUBE PRINT IS ACTIVE THEN
 MO_LIST =           19          20
 -------------------------
 ----------
  block-orthonormalizing transformation -T-
 ----------
   1.0220154970302648      -0.11497683692000890       -1.5219154284780330E-015   0.0000000000000000       -1.5218879593883823E-015  -1.9119384519924038E-002   5.3525458227402343E-016   0.0000000000000000        5.3524730399898113E-016
 -0.11497683692000890        1.4251307505555786       -1.1144508070758676E-015   0.0000000000000000       -1.1144972558816885E-015 -0.65043306269523771        2.9813758369751392E-017   0.0000000000000000        2.9692494712693939E-017
  -1.5219154284780330E-015  -1.1144508070758676E-015   1.1162260355285669        0.0000000000000000       -5.5511151231257827E-017   1.3982182265977301E-015 -0.30014301821962791        0.0000000000000000        1.3877787807814457E-016
   0.0000000000000000        0.0000000000000000        0.0000000000000000        1.1162260355285671        0.0000000000000000        0.0000000000000000        0.0000000000000000      -0.30014301821962797        0.0000000000000000     
  -1.5218879593883823E-015  -1.1144972558816885E-015  -2.7755575615628914E-017   0.0000000000000000        1.1162260355285669        1.3983550832207339E-015   2.7755575615628914E-017   0.0000000000000000      -0.30014301821962774     
  -1.9119384519924038E-002 -0.65043306269523771        1.3982182265977301E-015   0.0000000000000000        1.3983550832207335E-015   1.4057953620348775       -8.0492542770219479E-016   0.0000000000000000       -8.0486211356745141E-016
   5.3525458227402205E-016   2.9813758369751589E-017 -0.30014301821962774        0.0000000000000000        2.7755575615628914E-017  -8.0492542770219479E-016   1.1162260355285669        0.0000000000000000        0.0000000000000000     
   0.0000000000000000        0.0000000000000000        0.0000000000000000      -0.30014301821962802        0.0000000000000000        0.0000000000000000        0.0000000000000000        1.1162260355285674        0.0000000000000000     
   5.3524730399897955E-016   2.9692494712694334E-017   1.3877787807814457E-016   0.0000000000000000      -0.30014301821962769       -8.0486211356745141E-016  -2.7755575615628914E-017   0.0000000000000000        1.1162260355285669     
 ----------
 ----------
  block-orthonormalizing transformation (inv.) -TI-
 ----------
  0.99194829032620968       0.10925747635962063        1.3636599765001864E-015   0.0000000000000000        1.3636343622392574E-015   6.4042120346200798E-002  -6.5721537715999612E-017   0.0000000000000000       -6.5713720374055514E-017
  0.10925747635962063       0.90156459934530897        6.3094703713354962E-016   0.0000000000000000        6.3095096583691570E-016  0.41862163951097880        3.9505793832622799E-016   0.0000000000000000        3.9513390567482363E-016
   1.3636599765001860E-015   6.3094703713354962E-016  0.96569810342443874        0.0000000000000000       -1.1102230246251565E-016  -5.0134083528183261E-016  0.25966742776567642        0.0000000000000000       -5.5511151231257827E-017
   0.0000000000000000        0.0000000000000000        0.0000000000000000       0.96569810342443851        0.0000000000000000        0.0000000000000000        0.0000000000000000       0.25966742776567631        0.0000000000000000     
   1.3636343622392571E-015   6.3095096583691570E-016  -1.6653345369377348E-016   0.0000000000000000       0.96569810342443863       -5.0144507319162068E-016  -1.6653345369377348E-016   0.0000000000000000       0.25966742776567631     
   6.4042120346200826E-002  0.41862163951097880       -5.0134083528183212E-016   0.0000000000000000       -5.0144507319162097E-016  0.90589984532215406        4.7655970142156251E-016   0.0000000000000000        4.7652618416122310E-016
  -6.5721537715998725E-017   3.9505793832622849E-016  0.25966742776567642        0.0000000000000000       -1.6653345369377348E-016   4.7655970142156251E-016  0.96569810342443863        0.0000000000000000       -1.6653345369377348E-016
   0.0000000000000000        0.0000000000000000        0.0000000000000000       0.25966742776567631        0.0000000000000000        0.0000000000000000        0.0000000000000000       0.96569810342443851        0.0000000000000000     
  -6.5713720374055120E-017   3.9513390567482363E-016  -5.5511151231257827E-017   0.0000000000000000       0.25966742776567631        4.7652618416122360E-016  -1.6653345369377348E-016   0.0000000000000000       0.96569810342443840     
 ----------
 ----------
  block-orthonormalizing transformation -T-
 ----------
   1.2436222172740397      -0.46707207935659306     
 -0.46707207935659306        1.2436222172740397     
 ----------
 ----------
  block-orthonormalizing transformation (inv.) -TI-
 ----------
  0.93615241817042172       0.35159443959436021     
  0.35159443959436021       0.93615241817042172     
 ----------
 ----------
  block-orthonormalizing transformation -T-
 ----------
   1.2436222172740397      -0.46707207935659306     
 -0.46707207935659306        1.2436222172740397     
 ----------
 ----------
  block-orthonormalizing transformation (inv.) -TI-
 ----------
  0.93615241817042172       0.35159443959436021     
  0.35159443959436021       0.93615241817042172     
 ----------
 ----------
  block-orthonormalizing transformation -T-
 ----------
   1.0220154970302648      -0.11497683692000890       -1.5219031567672484E-015  -1.5219031567672484E-015   0.0000000000000000       -1.9119384519924038E-002   5.3525326573816473E-016   5.3525326573816592E-016   0.0000000000000000     
 -0.11497683692000890        1.4251307505555786       -1.1144817017240758E-015  -1.1144817017240764E-015   0.0000000000000000      -0.65043306269523771        2.9753655234874741E-017   2.9753655234875321E-017   0.0000000000000000     
  -1.5219031567672484E-015  -1.1144817017240758E-015   1.1162260355285671        5.0487097934144756E-029   0.0000000000000000        1.3982869266527463E-015 -0.30014301821962786       -5.0487097934144756E-029   0.0000000000000000     
  -1.5219031567672484E-015  -1.1144817017240756E-015   5.0487097934144756E-029   1.1162260355285671        0.0000000000000000        1.3982869266527445E-015  -5.0487097934144756E-029 -0.30014301821962797        0.0000000000000000     
   0.0000000000000000        0.0000000000000000        0.0000000000000000        0.0000000000000000        1.1162260355285671        0.0000000000000000        0.0000000000000000        0.0000000000000000      -0.30014301821962786     
  -1.9119384519924038E-002 -0.65043306269523771        1.3982869266527459E-015   1.3982869266527445E-015   0.0000000000000000        1.4057953620348775       -8.0488551868379580E-016  -8.0488551868379186E-016   0.0000000000000000     
   5.3525326573816473E-016   2.9753655234874741E-017 -0.30014301821962791        0.0000000000000000        0.0000000000000000       -8.0488551868379501E-016   1.1162260355285671       -2.5243548967072378E-029   0.0000000000000000     
   5.3525326573816671E-016   2.9753655234875715E-017  -7.5730646901217133E-029 -0.30014301821962802        0.0000000000000000       -8.0488551868379186E-016   2.5243548967072378E-029   1.1162260355285674        0.0000000000000000     
   0.0000000000000000        0.0000000000000000        0.0000000000000000        0.0000000000000000      -0.30014301821962791        0.0000000000000000        0.0000000000000000        0.0000000000000000        1.1162260355285671     
 ----------
 ----------
  block-orthonormalizing transformation (inv.) -TI-
 ----------
  0.99194829032620968       0.10925747635962063        1.3636486126565591E-015   1.3636486126565584E-015   0.0000000000000000        6.4042120346200798E-002  -6.5719830162344275E-017  -6.5719830162341108E-017   0.0000000000000000     
  0.10925747635962063       0.90156459934530897        6.3095463731786916E-016   6.3095463731786817E-016   0.0000000000000000       0.41862163951097880        3.9509368831088916E-016   3.9509368831089123E-016   0.0000000000000000     
   1.3636486126565591E-015   6.3095463731786916E-016  0.96569810342443863       -3.7865323450608567E-029   0.0000000000000000       -5.0139203792872251E-016  0.25966742776567625        0.0000000000000000        0.0000000000000000     
   1.3636486126565584E-015   6.3095463731786817E-016  -3.7865323450608567E-029  0.96569810342443851        0.0000000000000000       -5.0139203792872241E-016   1.2621774483536189E-029  0.25966742776567631        0.0000000000000000     
   0.0000000000000000        0.0000000000000000        0.0000000000000000        0.0000000000000000       0.96569810342443863        0.0000000000000000        0.0000000000000000        0.0000000000000000       0.25966742776567625     
   6.4042120346200826E-002  0.41862163951097880       -5.0139203792872251E-016  -5.0139203792872231E-016   0.0000000000000000       0.90589984532215406        4.7653616057667167E-016   4.7653616057667196E-016   0.0000000000000000     
  -6.5719830162345064E-017   3.9509368831088975E-016  0.25966742776567625        1.2621774483536189E-029   0.0000000000000000        4.7653616057667167E-016  0.96569810342443851        2.5243548967072378E-029   0.0000000000000000     
  -6.5719830162341896E-017   3.9509368831089123E-016   0.0000000000000000       0.25966742776567631        0.0000000000000000        4.7653616057667196E-016   1.2621774483536189E-029  0.96569810342443851        0.0000000000000000     
   0.0000000000000000        0.0000000000000000        0.0000000000000000        0.0000000000000000       0.25966742776567625        0.0000000000000000        0.0000000000000000        0.0000000000000000       0.96569810342443851     
 ----------
 ----------
  block-orthonormalizing transformation -T-
 ----------
   1.2436222172740397      -0.46707207935659306     
 -0.46707207935659306        1.2436222172740397     
 ----------
 ----------
  block-orthonormalizing transformation (inv.) -TI-
 ----------
  0.93615241817042172       0.35159443959436021     
  0.35159443959436021       0.93615241817042172     
 ----------
 ----------
  block-orthonormalizing transformation -T-
 ----------
   1.2436222172740397      -0.46707207935659306     
 -0.46707207935659306        1.2436222172740397     
 ----------
 ----------
  block-orthonormalizing transformation (inv.) -TI-
 ----------
  0.93615241817042172       0.35159443959436021     
  0.35159443959436021       0.93615241817042172     
 ----------
 S in Sph. Harm. basis
 #     Row    Column                   Value
         1         1      1.000000000000E+00
         2         1      2.336898571970E-01
         3         1     -2.689435716353E-15
         4         1      0.000000000000E+00
         5         1     -2.689435716353E-15
         6         1      1.672797625845E-01
         7         1     -2.991984007407E-16
         8         1      0.000000000000E+00
         9         1     -2.991984007407E-16
        10         1      3.648159164154E-02
        11         1      6.975592822910E-02
        12         1      3.723801528772E-02
        13         1      7.013292773818E-02
        14         1      0.000000000000E+00
        15         1      4.815959282821E-13
        16         1     -9.469527145777E-28
        17         1      1.107148854801E-13
        18         1     -2.979150950190E-12
        19         1      4.720275739649E-05
        20         1     -8.425421218281E-20
        21         1      9.850751055920E-06
        22         1     -2.650671067498E-04
        23         1      1.882052059973E-11
        24         1      2.204486879072E-04
        25         1      1.882052059973E-11
        26         1      2.204486879072E-04
         1         2      2.336898571970E-01
         2         2      1.000000000000E+00
         3         2     -1.220132371822E-15
         4         2      0.000000000000E+00
         5         2     -1.220132371822E-15
         6         2      7.636408096342E-01
         7         2     -1.094049408124E-15
         8         2      0.000000000000E+00
         9         2     -1.094049408124E-15
        10         2      2.560587941709E-01
        11         2      3.840073145202E-01
        12         2      2.596616933362E-01
        13         2      3.858156298474E-01
        14         2      4.815959282821E-13
        15         2      1.667778220111E-07
        16         2     -1.918282608638E-22
        17         2      2.242798780385E-08
        18         2     -6.034993477795E-07
        19         2      1.032779139946E-03
        20         2     -1.498867444470E-18
        21         2      1.752431086681E-04
        22         2     -4.715496669117E-03
        23         2      1.577635900058E-07
        24         2      2.508087415941E-03
        25         2      1.577635900058E-07
        26         2      2.508087415941E-03
         1         3      2.689435716353E-15
         2         3      1.220132371822E-15
         3         3      1.000000000000E+00
         4         3      0.000000000000E+00
         5         3     -5.366623093664E-30
         6         3      4.629196619982E-16
         7         3      5.015206850288E-01
         8         3      0.000000000000E+00
         9         3     -6.907181587647E-31
        10         3      2.914787263500E-16
        11         3      1.464815298262E-16
        12         3     -2.960682138394E-16
        13         3     -1.471859914088E-16
        14         3      9.469527145777E-28
        15         3      1.918282608638E-22
        16         3      6.897587525889E-08
        17         3      2.579828963017E-23
        18         3     -6.941884890342E-22
        19         3      5.346116304786E-19
        20         3      5.791907606272E-04
        21         3      9.182652504634E-20
        22         3     -2.470897008639E-18
        23         3      1.130587459386E-07
        24         3      7.093510736078E-04
        25         3     -1.130587459386E-07
        26         3     -7.093510736078E-04
         1         4      0.000000000000E+00
         2         4      0.000000000000E+00
         3         4      0.000000000000E+00
         4         4      1.000000000000E+00
         5         4      0.000000000000E+00
         6         4      0.000000000000E+00
         7         4      0.000000000000E+00
         8         4      5.015206850288E-01
         9         4      0.000000000000E+00
        10         4      8.132355117777E-03
        11         4      4.086884259647E-03
        12         4      2.835247680435E-01
        13         4      1.409502004024E-01
        14         4     -1.107148854801E-13
        15         4     -2.242798780385E-08
        16         4      2.579828963017E-23
        17         4      6.595961622292E-08
        18         4      8.116244653174E-08
        19         4     -6.250519644071E-05
        20         4      9.182652504634E-20
        21         4      5.684546773486E-04
        22         4      2.888899045677E-04
        23         4     -9.394885092326E-08
        24         4     -5.894521269751E-04
        25         4     -9.394885092326E-08
        26         4     -5.894521269751E-04
         1         5      2.689435716353E-15
         2         5      1.220132371822E-15
         3         5     -5.366623093664E-30
         4         5      0.000000000000E+00
         5         5      1.000000000000E+00
         6         5      4.629196619982E-16
         7         5     -6.907181587647E-31
         8         5      0.000000000000E+00
         9         5      5.015206850288E-01
        10         5      2.936742260936E-01
        11         5      1.475848699059E-01
        12         5     -8.784872039048E-02
        13         5     -4.367270919425E-02
        14         5      2.979150950190E-12
        15         5      6.034993477795E-07
        16         5     -6.941884890342E-22
        17         5      8.116244653174E-08
        18         5     -2.114968755640E-06
        19         5      1.681909479116E-03
        20         5     -2.470897008639E-18
        21         5      2.888899045677E-04
        22         5     -7.194349626118E-03
        23         5      4.757974155733E-07
        24         5      2.985239264374E-03
        25         5      4.757974155733E-07
        26         5      2.985239264374E-03
         1         6      1.672797625845E-01
         2         6      7.636408096342E-01
         3         6     -4.629196619982E-16
         4         6      0.000000000000E+00
         5         6     -4.629196619982E-16
         6         6      1.000000000000E+00
         7         6     -9.230320419816E-16
         8         6      0.000000000000E+00
         9         6     -9.230320419816E-16
        10         6      4.333788013021E-01
        11         6      6.887241631421E-01
        12         6      4.362837104887E-01
        13         6      6.910973529076E-01
        14         6      4.720275739649E-05
        15         6      1.032779139946E-03
        16         6     -5.346116304786E-19
        17         6      6.250519644071E-05
        18         6     -1.681909479116E-03
        19         6      1.466740080436E-02
        20         6     -1.353848091501E-17
        21         6      1.582878786875E-03
        22         6     -4.259260009626E-02
        23         6      3.906820138163E-04
        24         6      1.745677107166E-02
        25         6      3.906820138163E-04
        26         6      1.745677107166E-02
         1         7      2.991984007407E-16
         2         7      1.094049408124E-15
         3         7      5.015206850288E-01
         4         7      0.000000000000E+00
         5         7     -6.907181587647E-31
         6         7      9.230320419816E-16
         7         7      1.000000000000E+00
         8         7      0.000000000000E+00
         9         7     -8.519881505247E-31
        10         7      5.810151623594E-16
        11         7      4.754486815061E-16
        12         7     -5.849419163986E-16
        13         7     -4.770869715580E-16
        14         7      8.425421218281E-20
        15         7      1.498867444470E-18
        16         7      5.791907606272E-04
        17         7      9.182652504634E-20
        18         7     -2.470897008639E-18
        19         7      1.353848091501E-17
        20         7      1.466740080436E-02
        21         7      1.461047838859E-18
        22         7     -3.931433464016E-17
        23         7      4.098247381396E-04
        24         7      9.692790380006E-03
        25         7     -4.098247381396E-04
        26         7     -9.692790380006E-03
         1         8      0.000000000000E+00
         2         8      0.000000000000E+00
         3         8      0.000000000000E+00
         4         8      5.015206850288E-01
         5         8      0.000000000000E+00
         6         8      0.000000000000E+00
         7         8      0.000000000000E+00
         8         8      1.000000000000E+00
         9         8      0.000000000000E+00
        10         8      1.621051967767E-02
        11         8      1.326517913230E-02
        12         8      5.601598328140E-01
        13         8      4.568743506552E-01
        14         8     -9.850751055920E-06
        15         8     -1.752431086681E-04
        16         8      9.182652504634E-20
        17         8      5.684546773486E-04
        18         8      2.888899045677E-04
        19         8     -1.582878786875E-03
        20         8      1.461047838859E-18
        21         8      1.449657945112E-02
        22         8      4.596514683789E-03
        23         8     -3.405536025409E-04
        24         8     -8.054454442086E-03
        25         8     -3.405536025409E-04
        26         8     -8.054454442086E-03
         1         9      2.991984007407E-16
         2         9      1.094049408124E-15
         3         9     -6.907181587647E-31
         4         9      0.000000000000E+00
         5         9      5.015206850288E-01
         6         9      9.230320419816E-16
         7         9     -8.519881505247E-31
         8         9      0.000000000000E+00
         9         9      1.000000000000E+00
        10         9      5.853915319695E-01
        11         9      4.790298946924E-01
        12         9     -1.735627009465E-01
        13         9     -1.415602148668E-01
        14         9      2.650671067498E-04
        15         9      4.715496669117E-03
        16         9     -2.470897008639E-18
        17         9      2.888899045677E-04
        18         9     -7.194349626118E-03
        19         9      4.259260009626E-02
        20         9     -3.931433464016E-17
        21         9      4.596514683789E-03
        22         9     -1.090170615730E-01
        23         9      1.724710013596E-03
        24         9      4.079122383868E-02
        25         9      1.724710013596E-03
        26         9      4.079122383868E-02
         1        10      3.648159164154E-02
         2        10      2.560587941709E-01
         3        10      2.914787263500E-16
         4        10      8.132355117777E-03
         5        10      2.936742260936E-01
         6        10      4.333788013021E-01
         7        10      5.810151623594E-16
         8        10      1.621051967767E-02
         9        10      5.853915319695E-01
        10        10      1.000000000000E+00
        11        10      6.582919696831E-01
        12        10      5.353030733792E-02
        13        10      2.274130707712E-01
        14        10      4.542710918924E-05
        15        10      2.969677947134E-03
        16        10      2.740344160867E-18
        17        10      3.968493910916E-04
        18        10     -5.860246653952E-03
        19        10      4.816636089756E-02
        20        10      6.366173857460E-17
        21        10      9.219324546874E-03
        22        10     -1.361411080382E-01
        23        10      7.046221224907E-04
        24        10      3.988629936161E-02
        25        10      7.046221224907E-04
        26        10      3.988629936161E-02
         1        11      6.975592822910E-02
         2        11      3.840073145202E-01
         3        11      1.464815298262E-16
         4        11      4.086884259647E-03
         5        11      1.475848699059E-01
         6        11      6.887241631421E-01
         7        11      4.754486815061E-16
         8        11      1.326517913230E-02
         9        11      4.790298946924E-01
[...]
        17        26      0.000000000000E+00
        18        26      0.000000000000E+00
        19        26      0.000000000000E+00
        20        26      0.000000000000E+00
        21        26      0.000000000000E+00
        22        26      0.000000000000E+00
        23        26      0.000000000000E+00
        24        26      0.000000000000E+00
        25        26      0.000000000000E+00
        26        26      0.000000000000E+00
    -moa- orb. -i- , max. ovlp., occ. number, occ.  1    0.000000      0.000000  2    0.000000
    -moa- orb. -i- , max. ovlp., occ. number, occ.  2    0.000000      0.000000  2    0.000000
    -moa- orb. -i- , max. ovlp., occ. number, occ.  3    0.000000      0.000000  2    0.000000
    -moa- orb. -i- , max. ovlp., occ. number, occ.  4    0.000041      0.000000  2    0.000000
    -moa- orb. -i- , max. ovlp., occ. number, occ.  5    0.004686      0.000022  2    0.000044
    -moa- orb. -i- , max. ovlp., occ. number, occ.  6    0.006808      0.000046  2    0.000093
    -moa- orb. -i- , max. ovlp., occ. number, occ.  7    0.012527      0.000157  2    0.000314
    -moa- orb. -i- , max. ovlp., occ. number, occ.  8    0.067088      0.004501  2    0.009002
    -moa- orb. -i- , max. ovlp., occ. number, occ.  9    0.982871      0.966035  2    1.932070
    -moa- orb. -i- , max. ovlp., occ. number, occ. 10    0.999662      0.999325  2    1.998650
    -moa- orb. -i- , max. ovlp., occ. number, occ. 11    0.999972      0.999944  2    1.999888
    -moa- orb. -i- , max. ovlp., occ. number, occ. 12    0.999993      0.999985  2    1.999970
    -moa- orb. -i- , max. ovlp., occ. number, occ. 13    1.000000      1.000000  2    2.000000
                                                                                      --------
                                                      -moa- population on fragment    9.940029
  --- EIG. VECs in Sph. Harm. basis (printing values .GE. vec_tol (default = 0.01)) --- 
      atom_#, element_symbol, sgf_symbol, value
  EIG. VAL/OCC. =     0.000000 /    0.000000
 -----------------------------
         4  O   1s              -0.371794
         4  O   2py              0.213520
         4  O   2pz              0.732250
         4  O   1s               0.305371
         4  O   2py             -0.530360
         4  O   2pz             -0.409474
         4  O   2px             -0.247232
         5  H   1s               0.721494
         6  H   1s               0.660153
         6  H   1s              -0.848121
  EIG. VAL/OCC. =     0.000000 /    0.000000
 -----------------------------
         4  O   2py             -0.513773
         4  O   2pz              0.207786
         4  O   2py              1.839811
         5  H   1s              -1.421247
         6  H   1s               0.486380
         6  H   1s               1.155512
  EIG. VAL/OCC. =     0.000000 /    0.000000
 -----------------------------
         4  O   2py              0.883968
         5  H   1s              -0.727945
         5  H   1s               0.222410
         6  H   1s               0.622082
         6  H   1s              -0.150657
  EIG. VAL/OCC. =     0.000041 /    0.000000
 -----------------------------
         4  O   1s               0.157501
         4  O   2px              0.563028
         4  O   1s               0.956657
         4  O   2pz             -0.512101
         4  O   2px             -0.339698
         5  H   1s              -0.172551
         5  H   1s              -0.760947
         6  H   1s              -0.172551
         6  H   1s              -0.760947
  EIG. VAL/OCC. =     0.004686 /    0.000044
 -----------------------------
         4  O   1s               1.253122
         4  O   2pz             -0.380962
         4  O   2px              0.207788
         4  O   1s              -2.486582
         4  O   2pz              1.165364
         4  O   2px             -0.545534
         5  H   1s               0.725724
         5  H   1s               0.512423
         6  H   1s               0.725724
         6  H   1s               0.512423
  EIG. VAL/OCC. =     0.006808 /    0.000093
 -----------------------------
         4  O   1s              -1.043170
         4  O   2pz             -0.537945
         4  O   1s               1.473388
         4  O   2pz              0.561565
         4  O   2px              0.154020
         5  H   1s               0.354784
         5  H   1s              -0.628465
         6  H   1s               0.354784
         6  H   1s              -0.628465
  EIG. VAL/OCC. =     0.012527 /    0.000314
 -----------------------------
         4  O   2py              0.322812
         4  O   2py             -0.294347
         5  H   1s               0.664087
         5  H   1s              -1.101766
         6  H   1s              -0.664087
         6  H   1s               1.101766
  EIG. VAL/OCC. =     0.067088 /    0.009002
 -----------------------------
         1  O   1s              -0.269074
         2  H   1s               0.552328
         4  O   1s               0.564643
         4  O   2px             -0.787378
         4  O   2pz             -0.255005
         4  O   2px              1.022164
         5  H   1s               0.170183
         5  H   1s              -0.521428
         6  H   1s               0.170183
         6  H   1s              -0.521428
  EIG. VAL/OCC. =     0.982871 /    1.932070
 -----------------------------
         1  O   1s               0.223529
         2  H   1s              -0.443219
         4  O   1s               0.293464
         4  O   2px             -0.468441
         4  O   1s               0.471317
         4  O   2px             -0.495252
  EIG. VAL/OCC. =     0.999662 /    1.998650
 -----------------------------
         4  O   1s               0.364779
         4  O   2px              0.358770
         4  O   1s               0.338242
         4  O   2px              0.267714
         5  H   1s               0.151816
         6  H   1s               0.151816
  EIG. VAL/OCC. =     0.999972 /    1.999888
 -----------------------------
         4  O   2pz             -0.574267
         4  O   1s              -0.185740
         4  O   2pz             -0.426988
  EIG. VAL/OCC. =     0.999993 /    1.999970
 -----------------------------
         4  O   2py             -0.511462
         4  O   2py             -0.271261
         5  H   1s              -0.263131
         6  H   1s               0.263131
  EIG. VAL/OCC. =     1.000000 /    2.000000
 -----------------------------
         4  O   1s              -1.015835
 NOTE: IF SOME ORBS ARE EXCLUDED CHECK THE TOTAL CHRG MIGHT NOT REFLECT THE WHOLE FRG CHRG
   MOA FOR FRAGMENTS
   -----------------
  FRAG   POP         CHRG          SPIN
      ----------------------------------------------------
    1     10.11108     -0.11108      0.00000
    2      9.94003      0.05997      0.00000
 ..... END OF MOA ANALYSIS FOR FRAGEMENTS .....
  
 ..... END OF MOA ANALYSIS .....

 ENERGY| Total FORCE_EVAL ( QS ) energy (a.u.):             -151.979157126334172


 -------------------------------------------------------------------------------
 -                                                                             -
 -                                DBCSR STATISTICS                             -
 -                                                                             -
 -------------------------------------------------------------------------------
 COUNTER                                    TOTAL       BLAS       SMM       ACC
 flops     2 x     2 x    10                20800     100.0%      0.0%      0.0%
 flops     2 x     9 x    10                37440     100.0%      0.0%      0.0%
 flops     9 x     2 x    10                37440     100.0%      0.0%      0.0%
 flops     9 x     9 x    10               126360     100.0%      0.0%      0.0%
 flops inhomo. stacks                           0       0.0%      0.0%      0.0%
 flops total                       222.040000E+03     100.0%      0.0%      0.0%
 flops max/rank                     42.120000E+03     100.0%      0.0%      0.0%
 matmuls inhomo. stacks                         0       0.0%      0.0%      0.0%
 matmuls total                                546     100.0%      0.0%      0.0%
 number of processed stacks                   546     100.0%      0.0%      0.0%
 average stack size                                     1.0       0.0       0.0
 marketing flops                   351.520000E+03
 -------------------------------------------------------------------------------
 # multiplications                             26
 max memory usage/rank             255.447040E+06
 # max total images/rank                        1
 # max 3D layers                                1
 # MPI messages exchanged                   23296
 MPI messages size (bytes):
  total size                       757.120000E+03
  min size                           0.000000E+00
  max size                         720.000000E+00
  average size                      32.500000E+00
 MPI breakdown and total messages size (bytes):
             size <=      128               21112                        0
       128 < size <=     8192                2184                   757120
      8192 < size <=    32768                   0                        0
     32768 < size <=   131072                   0                        0
    131072 < size <=  4194304                   0                        0
   4194304 < size <= 16777216                   0                        0
  16777216 < size                               0                        0
 -------------------------------------------------------------------------------

 MEMORY| Estimated peak process memory [MiB]                                 245

 -------------------------------------------------------------------------------
 ----                             MULTIGRID INFO                            ----
 -------------------------------------------------------------------------------
 count for grid        1:         192775          cutoff [a.u.]          300.00
 count for grid        2:          19007          cutoff [a.u.]          100.00
 count for grid        3:          12455          cutoff [a.u.]           33.33
 count for grid        4:           4106          cutoff [a.u.]           11.11
 count for grid        5:              0          cutoff [a.u.]            3.70
 count for grid        6:              0          cutoff [a.u.]            1.23
 count for grid        7:              0          cutoff [a.u.]            0.41
 count for grid        8:              0          cutoff [a.u.]            0.14
 count for grid        9:              0          cutoff [a.u.]            0.05
 count for grid       10:              0          cutoff [a.u.]            0.02
 total gridlevel count  :         228343

 -------------------------------------------------------------------------------
 -                                                                             -
 -                         MESSAGE PASSING PERFORMANCE                         -
 -                                                                             -
 -------------------------------------------------------------------------------

 ROUTINE             CALLS      AVE VOLUME [Bytes]
 MP_Group               66
 MP_Bcast              440                   5937.
 MP_Allreduce         1530                   1353.
 MP_Sync             50946
 MP_Alltoall          1905                1684812.
 MP_ISendRecv        32130                  11997.
 MP_Wait             39148
 MP_comm_split          55
 MP_ISend             6689                 197315.
 MP_IRecv             6699                 197165.
 MP_Recv             49532                   1786.
 MP_Memory            1040
 -------------------------------------------------------------------------------


 -------------------------------------------------------------------------------
 -                                                                             -
 -                           R E F E R E N C E S                               -
 -                                                                             -
 -------------------------------------------------------------------------------
 
 CP2K version 6.1, the CP2K developers group (2018).
 CP2K is freely available from https://www.cp2k.org/ .

 Schuett, Ole; Messmer, Peter; Hutter, Juerg; VandeVondele, Joost. 
 Electronic Structure Calculations on Graphics Processing Units, John Wiley & Sons, Ltd, 173-190 (2016). 
 GPU-Accelerated Sparse Matrix-Matrix Multiplication for Linear Scaling Density Functional Theory.
 http://dx.doi.org/10.1002/9781118670712.ch8


 Borstnik, U; VandeVondele, J; Weber, V; Hutter, J. 
 PARALLEL COMPUTING, 40 (5-6), 47-58 (2014). 
 Sparse matrix multiplication: The distributed block-compressed sparse
 row library.
 http://dx.doi.org/10.1016/j.parco.2014.03.012


 Hutter, J; Iannuzzi, M; Schiffmann, F; VandeVondele, J. 
 WILEY INTERDISCIPLINARY REVIEWS-COMPUTATIONAL MOLECULAR SCIENCE, 4 (1), 15-25 (2014). 
 CP2K: atomistic simulations of condensed matter systems.
 http://dx.doi.org/10.1002/wcms.1159


 Guidon, M; Hutter, J; VandeVondele, J. 
 JOURNAL OF CHEMICAL THEORY AND COMPUTATION, 5 (11), 3010-3021 (2009). 
 Robust Periodic Hartree-Fock Exchange for Large-Scale Simulations Using
 Gaussian Basis Sets.
 http://dx.doi.org/10.1021/ct900494g


 Guidon, M; Schiffmann, F; Hutter, J; VandeVondele, J. 
 JOURNAL OF CHEMICAL PHYSICS, 128 (21), 214104 (2008). 
 Ab initio molecular dynamics using hybrid density functionals.
 http://dx.doi.org/10.1063/1.2931945


 Genovese, L; Deutsch, T; Goedecker, S. 
 JOURNAL OF CHEMICAL PHYSICS, 127 (5), 054704 (2007). 
 Efficient and accurate three-dimensional Poisson solver for surface
 problems.
 http://dx.doi.org/10.1063/1.2754685


 Genovese, L; Deutsch, T; Neelov, A; Goedecker, S; Beylkin, G. 
 JOURNAL OF CHEMICAL PHYSICS, 125 (7), 074105 (2006). 
 Efficient solution of Poisson's equation with free boundary conditions.
 http://dx.doi.org/10.1063/1.2335442


 Frigo, M; Johnson, SG. 
 PROCEEDINGS OF THE IEEE, 93 (2), 216-231 (2005). 
 The design and implementation of FFTW3.
 http://dx.doi.org/10.1109/JPROC.2004.840301


 Lippert, G; Hutter, J; Parrinello, M. 
 THEORETICAL CHEMISTRY ACCOUNTS, 103 (2), 124-140 (1999). 
 The Gaussian and augmented-plane-wave density functional method for ab
 initio molecular dynamics simulations.
 http://dx.doi.org/10.1007/s002140050523


 Krack, M; Parrinello, M. 
 PHYSICAL CHEMISTRY CHEMICAL PHYSICS, 2 (10), 2105-2112 (2000). 
 All-electron ab-initio molecular dynamics.
 http://dx.doi.org/10.1039/b001167n


 -------------------------------------------------------------------------------
 -                                                                             -
 -                                T I M I N G                                  -
 -                                                                             -
 -------------------------------------------------------------------------------
 SUBROUTINE                       CALLS  ASD         SELF TIME        TOTAL TIME
                                MAXIMUM       AVERAGE  MAXIMUM  AVERAGE  MAXIMUM
 CP2K                                 1  1.0    0.191    0.241   23.771   23.781
 qs_energies                          1  2.0    0.001    0.007   22.820   22.927
 scf_env_do_scf                       1  3.0    0.000    0.000   15.736   15.738
 scf_env_do_scf_inner_loop           26  4.0    0.002    0.005   15.734   15.738
 qs_ks_update_qs_env                 26  5.0    0.001    0.001   12.422   12.428
 rebuild_ks_matrix                   26  6.0    0.000    0.000   12.418   12.426
 qs_ks_build_kohn_sham_matrix        26  7.0    0.013    0.020   12.418   12.426
 qs_energies_properties               1  3.0    0.000    0.000    6.596    6.689
 maximal_orbital_analysis             1  4.0    0.001    0.010    6.596    6.689
 moax_frg                             2  5.0    0.002    0.015    6.472    6.579
 orbmoa_frg                           2  6.0    0.007    0.386    6.281    6.483
 mp_sync                          50946  8.1    5.584    5.684    5.584    5.684
 pw_to_cube                           4  7.0    0.099    4.474    5.634    5.643
 pw_transfer                        731  9.3    0.035    0.038    5.203    5.406
 fft_wrap_pw1pw2                    705 10.3    0.004    0.004    5.152    5.349
 fft_wrap_pw1pw2_300                192 10.9    0.313    0.360    4.615    4.825
 pw_poisson_solve                    26  8.0    0.124    0.151    4.361    4.362
 fft3d_ps                           705 12.3    2.041    2.309    4.138    4.331
 rs_pw_transfer                     624  9.4    0.005    0.006    4.220    4.250
 prepare_gapw_den                    26  8.0    0.025    0.064    3.356    3.364
 qs_rho_update_rho                   27  5.0    0.000    0.000    3.165    3.166
 calculate_rho_elec                  27  6.0    0.036    0.074    3.158    3.159
 density_rs2pw                       27  7.0    0.002    0.002    2.845    2.918
 sum_up_and_integrate                26  8.0    0.000    0.000    2.361    2.361
 integrate_v_rspace                  26  9.0    0.007    0.043    2.360    2.361
 potential_pw2rs                     26 10.0    0.003    0.003    2.309    2.310
 ps_wavelet_solve                    26  9.0    1.117    1.228    1.786    1.846
 mp_alltoall_z22v                   705 14.3    1.595    1.769    1.595    1.769
 rs_pw_transfer_RS2PW_300            58  9.9    1.086    1.173    1.599    1.649
 put_rho0_on_grid                    26  9.0    0.029    0.037    1.616    1.623
 mp_alltoall_d54                     26 10.0    0.441    1.359    0.441    1.359
 rs_pw_transfer_PW2RS_300            53 10.9    0.854    0.896    1.306    1.344
 calculate_rho_atom                  52  9.0    0.703    1.296    0.703    1.297
 yz_to_x                            171 12.9    0.180    0.223    1.121    1.247
 mp_waitany                        3696 11.4    0.932    1.027    0.932    1.027
 mp_sum_dv                           53  9.0    0.661    0.989    0.661    0.989
 x_to_yz                            135 13.3    0.219    0.267    0.865    0.920
 mp_sum_d                           748  4.1    0.631    0.890    0.631    0.890
 integrate_vhg0_rspace               26  8.0    0.004    0.007    0.770    0.770
 pw_poisson_rebuild                  26  9.0    0.000    0.000    0.700    0.703
 ps_wavelet_create                    1 10.0    0.000    0.000    0.700    0.703
 RS_z_slice_distribution              1 11.0    0.584    0.679    0.700    0.703
 calculate_wavefunction               4  7.0    0.135    0.181    0.607    0.621
 rs_grid_zero                       442  8.3    0.565    0.583    0.565    0.583
 mp_waitall_1                     35452 11.4    0.463    0.553    0.463    0.553
 hfx_ks_matrix                       26  8.0    0.006    0.010    0.531    0.534
 integrate_four_center               26  9.0    0.009    0.009    0.524    0.531
 pw_gather_p                        388 11.4    0.414    0.501    0.414    0.501
 mp_alltoall_d45                     27 10.1    0.315    0.477    0.315    0.477
 -------------------------------------------------------------------------------

 The number of warnings for this run is : 1
 
 -------------------------------------------------------------------------------
  **** **** ******  **  PROGRAM ENDED AT                 2020-04-18 19:23:38.775
 ***** ** ***  *** **   PROGRAM RAN ON            cpn-u24-26.cbls.ccr.buffalo.ed
 **    ****   ******    PROGRAM RAN BY                                  pavankum
 ***** **    ** ** **   PROGRAM PROCESS ID                                 79612
  **** **  *******  **  PROGRAM STOPPED IN /projects/academic/mdupuis2/pavan/MOA
                                           /results_for_paper/1.water-dimer/6-31
                                           G/cp2k
