 DBCSR| Multiplication driver                                               BLAS
 DBCSR| Multrec recursion limit                                              512
 DBCSR| Multiplication stack size                                           1000
 DBCSR| Maximum elements for images                                    UNLIMITED
 DBCSR| Multiplicative factor virtual images                                   1
 DBCSR| Multiplication size stacks                                             3
 DBCSR| Number of 3D layers                                               SINGLE
 DBCSR| Use MPI memory allocation                                              T
 DBCSR| Use RMA algorithm                                                      F
 DBCSR| Use Communication thread                                               T
 DBCSR| Communication thread load                                             87


  **** **** ******  **  PROGRAM STARTED AT               2020-02-18 11:09:02.879
 ***** ** ***  *** **   PROGRAM STARTED ON        cpn-v11-29-01.compute.cbls.ccr
 **    ****   ******    PROGRAM STARTED BY                              pavankum
 ***** **    ** ** **   PROGRAM PROCESS ID                                 68996
  **** **  *******  **  PROGRAM STARTED IN /projects/academic/mdupuis2/pavan/MOA
                                           /Hematite/state1

 CP2K| version string:                                          CP2K version 6.1
 CP2K| source code revision number:                                    svn:18464
 CP2K| cp2kflags: libint fftw3 libxc parallel mpi3 scalapack libderiv_max_am1=5 
 CP2K|            libint_max_am=6
 CP2K| is freely available from                            https://www.cp2k.org/
 CP2K| Program compiled at                          Fri Nov 30 14:17:09 EST 2018
 CP2K| Program compiled on                       srv-p22-12.cbls.ccr.buffalo.edu
 CP2K| Program compiled for                                                local
 CP2K| Data directory path    /projects/academic/mdupuis2/pavan/cp2k/cp2k-6.1/da
 CP2K| Input file name                                                 input.inp

 GLOBAL| Force Environment number                                              1
 GLOBAL| Basis set file name            /projects/academic/mdupuis2/pavan/BASIS_
 GLOBAL| Potential file name            /projects/academic/mdupuis2/pavan/POTENT
 GLOBAL| MM Potential file name                                     MM_POTENTIAL
 GLOBAL| Coordinate file name                                           opt1.xyz
 GLOBAL| Method name                                                        CP2K
 GLOBAL| Project name                                                      p_fe_
 GLOBAL| Preferred FFT library                                             FFTW3
 GLOBAL| Preferred diagonalization lib.                                       SL
 GLOBAL| Run type                                                         ENERGY
 GLOBAL| All-to-all communication in single precision                          F
 GLOBAL| FFTs using library dependent lengths                                  T
 GLOBAL| Global print level                                               MEDIUM
 GLOBAL| Total number of message passing processes                           160
 GLOBAL| Number of threads for this process                                    1
 GLOBAL| This output is from process                                           0
 GLOBAL| CPU model name :  Intel(R) Xeon(R) Gold 6230 CPU @ 2.10GHz

 MEMORY| system memory details [Kb]
 MEMORY|                        rank 0           min           max       average
 MEMORY| MemTotal            790795296     790795296     790795300     790795297
 MEMORY| MemFree             780341764     780341764     780518432     780434886
 MEMORY| Buffers                  6216          6216          6216          6216
 MEMORY| Cached                1334692       1254416       1384184       1318336
 MEMORY| Slab                   901504        896908        908720        902473
 MEMORY| SReclaimable           608736        604584        618448        611434
 MEMORY| MemLikelyFree       782291408     782291408     782404264     782370872


 *** Fundamental physical constants (SI units) ***

 *** Literature: B. J. Mohr and B. N. Taylor,
 ***             CODATA recommended values of the fundamental physical
 ***             constants: 2006, Web Version 5.1
 ***             http://physics.nist.gov/constants

 Speed of light in vacuum [m/s]                             2.99792458000000E+08
 Magnetic constant or permeability of vacuum [N/A**2]       1.25663706143592E-06
 Electric constant or permittivity of vacuum [F/m]          8.85418781762039E-12
 Planck constant (h) [J*s]                                  6.62606896000000E-34
 Planck constant (h-bar) [J*s]                              1.05457162825177E-34
 Elementary charge [C]                                      1.60217648700000E-19
 Electron mass [kg]                                         9.10938215000000E-31
 Electron g factor [ ]                                     -2.00231930436220E+00
 Proton mass [kg]                                           1.67262163700000E-27
 Fine-structure constant                                    7.29735253760000E-03
 Rydberg constant [1/m]                                     1.09737315685270E+07
 Avogadro constant [1/mol]                                  6.02214179000000E+23
 Boltzmann constant [J/K]                                   1.38065040000000E-23
 Atomic mass unit [kg]                                      1.66053878200000E-27
 Bohr radius [m]                                            5.29177208590000E-11

 *** Conversion factors ***

 [u] -> [a.u.]                                              1.82288848426455E+03
 [Angstrom] -> [Bohr] = [a.u.]                              1.88972613288564E+00
 [a.u.] = [Bohr] -> [Angstrom]                              5.29177208590000E-01
 [a.u.] -> [s]                                              2.41888432650478E-17
 [a.u.] -> [fs]                                             2.41888432650478E-02
 [a.u.] -> [J]                                              4.35974393937059E-18
 [a.u.] -> [N]                                              8.23872205491840E-08
 [a.u.] -> [K]                                              3.15774647902944E+05
 [a.u.] -> [kJ/mol]                                         2.62549961709828E+03
 [a.u.] -> [kcal/mol]                                       6.27509468713739E+02
 [a.u.] -> [Pa]                                             2.94210107994716E+13
 [a.u.] -> [bar]                                            2.94210107994716E+08
 [a.u.] -> [atm]                                            2.90362800883016E+08
 [a.u.] -> [eV]                                             2.72113838565563E+01
 [a.u.] -> [Hz]                                             6.57968392072181E+15
 [a.u.] -> [1/cm] (wave numbers)                            2.19474631370540E+05
 [a.u./Bohr**2] -> [1/cm]                                   5.14048714338585E+03
 

 CELL_TOP| Volume [angstrom^3]:                                         2491.262
 CELL_TOP| Vector a [angstrom    14.725     0.000     0.000    |a| =      14.725
 CELL_TOP| Vector b [angstrom    -7.362    12.752     0.000    |b| =      14.725
 CELL_TOP| Vector c [angstrom     0.000     0.000    13.267    |c| =      13.267
 CELL_TOP| Angle (b,c), alpha [degree]:                                   90.000
 CELL_TOP| Angle (a,c), beta  [degree]:                                   90.000
 CELL_TOP| Angle (a,b), gamma [degree]:                                  120.000
 CELL_TOP| Numerically orthorhombic:                                          NO

 CELL| Volume [angstrom^3]:                                             2491.262
 CELL| Vector a [angstrom]:      14.725     0.000     0.000    |a| =      14.725
 CELL| Vector b [angstrom]:      -7.362    12.752     0.000    |b| =      14.725
 CELL| Vector c [angstrom]:       0.000     0.000    13.267    |c| =      13.267
 CELL| Angle (b,c), alpha [degree]:                                       90.000
 CELL| Angle (a,c), beta  [degree]:                                       90.000
 CELL| Angle (a,b), gamma [degree]:                                      120.000
 CELL| Numerically orthorhombic:                                              NO

 CELL_REF| Volume [angstrom^3]:                                         2491.262
 CELL_REF| Vector a [angstrom    14.725     0.000     0.000    |a| =      14.725
 CELL_REF| Vector b [angstrom    -7.362    12.752     0.000    |b| =      14.725
 CELL_REF| Vector c [angstrom     0.000     0.000    13.267    |c| =      13.267
 CELL_REF| Angle (b,c), alpha [degree]:                                   90.000
 CELL_REF| Angle (a,c), beta  [degree]:                                   90.000
 CELL_REF| Angle (a,b), gamma [degree]:                                  120.000
 CELL_REF| Numerically orthorhombic:                                          NO

 *******************************************************************************
 *******************************************************************************
 **                                                                           **
 **     #####                         ##              ##                      **
 **    ##   ##            ##          ##              ##                      **
 **   ##     ##                       ##            ######                    **
 **   ##     ##  ##   ##  ##   #####  ##  ##   ####   ##    #####    #####    **
 **   ##     ##  ##   ##  ##  ##      ## ##   ##      ##   ##   ##  ##   ##   **
 **   ##  ## ##  ##   ##  ##  ##      ####     ###    ##   ######   ######    **
 **    ##  ###   ##   ##  ##  ##      ## ##      ##   ##   ##       ##        **
 **     #######   #####   ##   #####  ##  ##  ####    ##    #####   ##        **
 **           ##                                                    ##        **
 **                                                                           **
 **                                                ... make the atoms dance   **
 **                                                                           **
 **            Copyright (C) by CP2K developers group (2000 - 2018)           **
 **                                                                           **
 *******************************************************************************

 DFT| Spin unrestricted (spin-polarized) Kohn-Sham calculation               UKS
 DFT| Multiplicity                                                             2
 DFT| Number of spin states                                                    2
 DFT| Charge                                                                  -1
 DFT| Self-interaction correction (SIC)                                       NO
 DFT| Cutoffs: density                                              1.000000E-10
 DFT|          gradient                                             1.000000E-10
 DFT|          tau                                                  1.000000E-10
 DFT|          cutoff_smoothing_range                               0.000000E+00
 DFT| XC density smoothing                                                  NONE
 DFT| XC derivatives                                                          PW

 DFT+U| Method                                                          MULLIKEN
 DFT+U| Check atomic kind information for details
 FUNCTIONAL| ROUTINE=NEW
 FUNCTIONAL| BECKE88:
 FUNCTIONAL| A. Becke, Phys. Rev. A 38, 3098 (1988) {LSD version}               
 FUNCTIONAL| LYP:
 FUNCTIONAL| C. Lee, W. Yang, R.G. Parr, Phys. Rev. B, 37, 785 (1988) {LSD versi
 FUNCTIONAL| on}                                                                

 QS| Method:                                                                 GPW
 QS| Density plane wave grid type                        NON-SPHERICAL FULLSPACE
 QS| Number of grid levels:                                                   10
 QS| Density cutoff [a.u.]:                                                325.0
 QS| Multi grid cutoff [a.u.]: 1) grid level                               325.0
 QS|                           2) grid level                               108.3
 QS|                           3) grid level                                36.1
 QS|                           4) grid level                                12.0
 QS|                           5) grid level                                 4.0
 QS|                           6) grid level                                 1.3
 QS|                           7) grid level                                 0.4
 QS|                           8) grid level                                 0.1
 QS|                           9) grid level                                 0.0
 QS|                          10) grid level                                 0.0
 QS| Grid level progression factor:                                          3.0
 QS| Relative density cutoff [a.u.]:                                        30.0
 QS| Consistent realspace mapping and integration 
 QS| Interaction thresholds: eps_pgf_orb:                                1.0E-06
 QS|                         eps_filter_matrix:                          0.0E+00
 QS|                         eps_core_charge:                            1.0E-14
 QS|                         eps_rho_gspace:                             1.0E-12
 QS|                         eps_rho_rspace:                             1.0E-12
 QS|                         eps_gvg_rspace:                             1.0E-06
 QS|                         eps_ppl:                                    1.0E-02
 QS|                         eps_ppnl:                                   1.0E-08


 ATOMIC KIND INFORMATION

  1. Atomic kind: Fe                                    Number of atoms:     108

     Orbital Basis Set                                                   mod-DZV

       Number of orbital shell sets:                                           1
       Number of orbital shells:                                               7
       Number of primitive Cartesian functions:                                6
       Number of Cartesian basis functions:                                   21
       Number of spherical basis functions:                                   19
       Norm type:                                                              2

       Normalised Cartesian orbitals:

                        Set   Shell   Orbital            Exponent    Coefficient

                          1       1    2s                8.424366      -0.545589
                                                         4.825220      -0.832336
                                                         2.198939       0.958990
                                                         0.891661       0.416271
                                                         0.316231       0.012631
                                                         0.103474      -0.013505

                          1       2    3s                8.424366      -0.106056
                                                         4.825220      -0.104587
                                                         2.198939       0.052318
                                                         0.891661      -0.169042
                                                         0.316231       0.061854
                                                         0.103474       0.122891

                          1       3    4s                8.424366      -0.333477
                                                         4.825220      -0.289267
                                                         2.198939      -0.125861
                                                         0.891661      -1.004000
                                                         0.316231       0.780774
                                                         0.103474      -0.187846

                          1       4    3px               8.424366      -1.658234
                                                         4.825220       1.618912
                                                         2.198939       1.969078
                                                         0.891661       0.523780
                                                         0.316231       0.024574
                                                         0.103474      -0.000798
                          1       4    3py               8.424366      -1.658234
                                                         4.825220       1.618912
                                                         2.198939       1.969078
                                                         0.891661       0.523780
                                                         0.316231       0.024574
                                                         0.103474      -0.000798
                          1       4    3pz               8.424366      -1.658234
                                                         4.825220       1.618912
                                                         2.198939       1.969078
                                                         0.891661       0.523780
                                                         0.316231       0.024574
                                                         0.103474      -0.000798

                          1       5    4px               8.424366      -0.105249
                                                         4.825220      -0.126123
                                                         2.198939      -0.349657
                                                         0.891661      -0.133470
                                                         0.316231       0.170554
                                                         0.103474       0.054381
                          1       5    4py               8.424366      -0.105249
                                                         4.825220      -0.126123
                                                         2.198939      -0.349657
                                                         0.891661      -0.133470
                                                         0.316231       0.170554
                                                         0.103474       0.054381
                          1       5    4pz               8.424366      -0.105249
                                                         4.825220      -0.126123
                                                         2.198939      -0.349657
                                                         0.891661      -0.133470
                                                         0.316231       0.170554
                                                         0.103474       0.054381

                          1       6    4dx2              8.424366       7.918298
                                                         4.825220       5.112663
                                                         2.198939       2.118663
                                                         0.891661       0.465004
                                                         0.316231       0.065856
                                                         0.103474       0.002769
                          1       6    4dxy              8.424366      13.714895
                                                         4.825220       8.855393
                                                         2.198939       3.669632
                                                         0.891661       0.805411
                                                         0.316231       0.114066
                                                         0.103474       0.004796
                          1       6    4dxz              8.424366      13.714895
                                                         4.825220       8.855393
                                                         2.198939       3.669632
                                                         0.891661       0.805411
                                                         0.316231       0.114066
                                                         0.103474       0.004796
                          1       6    4dy2              8.424366       7.918298
                                                         4.825220       5.112663
                                                         2.198939       2.118663
                                                         0.891661       0.465004
                                                         0.316231       0.065856
                                                         0.103474       0.002769
                          1       6    4dyz              8.424366      13.714895
                                                         4.825220       8.855393
                                                         2.198939       3.669632
                                                         0.891661       0.805411
                                                         0.316231       0.114066
                                                         0.103474       0.004796
                          1       6    4dz2              8.424366       7.918298
                                                         4.825220       5.112663
                                                         2.198939       2.118663
                                                         0.891661       0.465004
                                                         0.316231       0.065856
                                                         0.103474       0.002769

                          1       7    5dx2              8.424366      -4.223614
                                                         4.825220      -1.970584
                                                         2.198939      -1.543490
                                                         0.891661      -0.041381
                                                         0.316231       0.082821
                                                         0.103474       0.021964
                          1       7    5dxy              8.424366      -7.315513
                                                         4.825220      -3.413151
                                                         2.198939      -2.673404
                                                         0.891661      -0.071673
                                                         0.316231       0.143450
                                                         0.103474       0.038042
                          1       7    5dxz              8.424366      -7.315513
                                                         4.825220      -3.413151
                                                         2.198939      -2.673404
                                                         0.891661      -0.071673
                                                         0.316231       0.143450
                                                         0.103474       0.038042
                          1       7    5dy2              8.424366      -4.223614
                                                         4.825220      -1.970584
                                                         2.198939      -1.543490
                                                         0.891661      -0.041381
                                                         0.316231       0.082821
                                                         0.103474       0.021964
                          1       7    5dyz              8.424366      -7.315513
                                                         4.825220      -3.413151
                                                         2.198939      -2.673404
                                                         0.891661      -0.071673
                                                         0.316231       0.143450
                                                         0.103474       0.038042
                          1       7    5dz2              8.424366      -4.223614
                                                         4.825220      -1.970584
                                                         2.198939      -1.543490
                                                         0.891661      -0.041381
                                                         0.316231       0.082821
                                                         0.103474       0.021964

     GTH Potential information for                                  GTH-BLYP-q16

       Description:                       Goedecker-Teter-Hutter pseudopotential
                                           Goedecker et al., PRB 54, 1703 (1996)
                                          Hartwigsen et al., PRB 58, 3641 (1998)
                                                      Krack, TCA 114, 145 (2005)

       Gaussian exponent of the core charge distribution:               3.858025
       Electronic configuration (s p d ...):                           4   6   6

       Parameters of the local part of the GTH pseudopotential:

                          rloc        C1          C2          C3          C4
                        0.360000    7.011025   -0.222747

       Parameters of the non-local part of the GTH pseudopotential:

                   l      r(l)      h(i,j,l)

                   0    0.276205    0.611496    7.992357
                                    7.992357  -10.318089
                   1    0.247130   -8.710556    8.684169
                                    8.684169  -10.275248
                   2    0.223534  -12.411504

     A DFT+U correction is applied to atoms of this atomic kind:
       Angular quantum momentum number L:                                      2
       U(eff) = (U - J) value in [eV]:                                     6.000

  2. Atomic kind: O                                     Number of atoms:     162

     Orbital Basis Set                                                   mod-DZV

       Number of orbital shell sets:                                           1
       Number of orbital shells:                                               4
       Number of primitive Cartesian functions:                                5
       Number of Cartesian basis functions:                                    8
       Number of spherical basis functions:                                    8
       Norm type:                                                              2

       Normalised Cartesian orbitals:

                        Set   Shell   Orbital            Exponent    Coefficient

                          1       1    2s               10.389228       0.396646
                                                         3.849621       0.208811
                                                         1.388401      -0.301641
                                                         0.496955      -0.274061
                                                         0.162492      -0.033677

                          1       2    3s               10.389228       0.303673
                                                         3.849621       0.240943
                                                         1.388401      -0.313066
                                                         0.496955      -0.043055
                                                         0.162492       0.213991

                          1       3    3px              10.389228      -1.530415
                                                         3.849621      -1.371928
                                                         1.388401      -0.761951
                                                         0.496955      -0.253695
                                                         0.162492      -0.035541
                          1       3    3py              10.389228      -1.530415
                                                         3.849621      -1.371928
                                                         1.388401      -0.761951
                                                         0.496955      -0.253695
                                                         0.162492      -0.035541
                          1       3    3pz              10.389228      -1.530415
                                                         3.849621      -1.371928
                                                         1.388401      -0.761951
                                                         0.496955      -0.253695
                                                         0.162492      -0.035541

                          1       4    4px              10.389228      -0.565392
                                                         3.849621      -0.038231
                                                         1.388401      -0.382373
                                                         0.496955       0.179070
                                                         0.162492       0.122714
                          1       4    4py              10.389228      -0.565392
                                                         3.849621      -0.038231
                                                         1.388401      -0.382373
                                                         0.496955       0.179070
                                                         0.162492       0.122714
                          1       4    4pz              10.389228      -0.565392
                                                         3.849621      -0.038231
                                                         1.388401      -0.382373
                                                         0.496955       0.179070
                                                         0.162492       0.122714

     GTH Potential information for                                   GTH-BLYP-q6

       Description:                       Goedecker-Teter-Hutter pseudopotential
                                           Goedecker et al., PRB 54, 1703 (1996)
                                          Hartwigsen et al., PRB 58, 3641 (1998)
                                                      Krack, TCA 114, 145 (2005)

       Gaussian exponent of the core charge distribution:               8.438331
       Electronic configuration (s p d ...):                               2   4

       Parameters of the local part of the GTH pseudopotential:

                          rloc        C1          C2          C3          C4
                        0.243420  -16.991892    2.566142

       Parameters of the non-local part of the GTH pseudopotential:

                   l      r(l)      h(i,j,l)

                   0    0.220831   18.388851
                   1    0.217201


 MOLECULE KIND INFORMATION


 All atoms are their own molecule, skipping detailed information


 TOTAL NUMBERS AND MAXIMUM NUMBERS

  Total number of            - Atomic kinds:                                   2
                             - Atoms:                                        270
                             - Shell sets:                                   270
                             - Shells:                                      1404
                             - Primitive Cartesian functions:               1458
                             - Cartesian basis functions:                   3564
                             - Spherical basis functions:                   3348

  Maximum angular momentum of- Orbital basis functions:                        2
                             - Local part of the GTH pseudopotential:          2
                             - Non-local part of the GTH pseudopotential:      3


 MODULE QUICKSTEP:  ATOMIC COORDINATES IN angstrom

  Atom  Kind  Element       X           Y           Z          Z(eff)       Mass

       1     1 Fe  26    0.032991    2.929292   13.744182     16.00      55.8450
       2     1 Fe  26    2.485344    4.345756    4.898110     16.00      55.8450
       3     1 Fe  26    2.486542    1.516442    9.319226     16.00      55.8450
       4     1 Fe  26    2.486932    4.348573    2.117746     16.00      55.8450
       5     1 Fe  26    2.485997    1.513303    6.537543     16.00      55.8450
       6     1 Fe  26    0.031934    2.927199   10.959473     16.00      55.8450
       7     1 Fe  26    0.033416    2.929909    4.327551     16.00      55.8450
       8     1 Fe  26    2.483100    4.354203    8.740479     16.00      55.8450
       9     1 Fe  26    2.486803    1.512126   13.170389     16.00      55.8450
      10     1 Fe  26    2.487520    1.512697    2.687947     16.00      55.8450
      11     1 Fe  26    0.032639    2.935005    7.111294     16.00      55.8450
      12     1 Fe  26    2.486031    4.345906   11.528078     16.00      55.8450
      13     1 Fe  26    4.939952    2.929689   13.743699     16.00      55.8450
      14     1 Fe  26    7.390928    4.346650    4.903400     16.00      55.8450
      15     1 Fe  26    7.394960    1.510530    9.319762     16.00      55.8450
      16     1 Fe  26    7.392828    4.346334    2.116673     16.00      55.8450
      17     1 Fe  26    7.394044    1.510838    6.537730     16.00      55.8450
      18     1 Fe  26    4.940465    2.931390   10.956347     16.00      55.8450
      19     1 Fe  26    4.939936    2.931813    4.328684     16.00      55.8450
      20     1 Fe  26    7.395517    4.341187    8.748967     16.00      55.8450
      21     1 Fe  26    7.394800    1.511630   13.170850     16.00      55.8450
      22     1 Fe  26    7.395227    1.511667    2.689219     16.00      55.8450
      23     1 Fe  26    4.941349    2.935327    7.108630     16.00      55.8450
      24     1 Fe  26    7.393662    4.345761   11.530798     16.00      55.8450
      25     1 Fe  26    9.849004    2.928480   13.744228     16.00      55.8450
      26     1 Fe  26   12.306256    4.348057    4.903462     16.00      55.8450
      27     1 Fe  26   12.303890    1.512138    9.319716     16.00      55.8450
      28     1 Fe  26   12.305019    4.346627    2.116706     16.00      55.8450
      29     1 Fe  26   12.304048    1.511178    6.537693     16.00      55.8450
      30     1 Fe  26    9.849013    2.928452   10.959570     16.00      55.8450
      31     1 Fe  26    9.848982    2.928398    4.327107     16.00      55.8450
      32     1 Fe  26   12.299132    4.346755    8.748971     16.00      55.8450
      33     1 Fe  26   12.303107    1.511408   13.170901     16.00      55.8450
      34     1 Fe  26   12.302895    1.511871    2.689275     16.00      55.8450
      35     1 Fe  26    9.848947    2.928423    7.109601     16.00      55.8450
      36     1 Fe  26   12.304117    4.346188   11.530832     16.00      55.8450
      37     1 Fe  26   -2.420250    7.179157   13.743688     16.00      55.8450
      38     1 Fe  26    0.033161    8.596833    4.898040     16.00      55.8450
      39     1 Fe  26    0.038296    5.756604    9.313625     16.00      55.8450
      40     1 Fe  26    0.034994    8.594169    2.117722     16.00      55.8450
      41     1 Fe  26    0.054236    5.768741    6.540536     16.00      55.8450
      42     1 Fe  26   -2.419030    7.177941   10.956314     16.00      55.8450
      43     1 Fe  26   -2.418509    7.178069    4.328734     16.00      55.8450
      44     1 Fe  26    0.041843    8.594610    8.740389     16.00      55.8450
      45     1 Fe  26    0.033221    5.762634   13.170862     16.00      55.8450
      46     1 Fe  26    0.038241    5.764869    2.692943     16.00      55.8450
      47     1 Fe  26   -2.416127    7.175222    7.108678     16.00      55.8450
      48     1 Fe  26    0.033215    8.596278   11.528051     16.00      55.8450
      49     1 Fe  26    2.486546    7.179157   13.742466     16.00      55.8450
      50     1 Fe  26    4.941080    8.595015    4.898011     16.00      55.8450
      51     1 Fe  26    4.942519    5.770291    9.313682     16.00      55.8450
      52     1 Fe  26    4.937731    8.594698    2.117735     16.00      55.8450
      53     1 Fe  26    4.924339    5.777902    6.540523     16.00      55.8450
      54     1 Fe  26    2.486557    7.179137   10.948952     16.00      55.8450
      55     1 Fe  26    2.486560    7.179193    4.377210     16.00      55.8450
      56     1 Fe  26    4.934777    8.588625    8.740452     16.00      55.8450
      57     1 Fe  26    4.939987    5.762713   13.170853     16.00      55.8450
      58     1 Fe  26    4.935576    5.765983    2.692928     16.00      55.8450
      59     1 Fe  26    2.486562    7.179132    7.118152     16.00      55.8450
      60     1 Fe  26    4.940484    8.595272   11.528113     16.00      55.8450
      61     1 Fe  26    7.393828    7.179212   13.744141     16.00      55.8450
      62     1 Fe  26    9.849840    8.595057    4.899802     16.00      55.8450
      63     1 Fe  26    9.848058    5.762610    9.319727     16.00      55.8450
      64     1 Fe  26    9.849017    8.595712    2.115702     16.00      55.8450
      65     1 Fe  26    9.848804    5.763238    6.537712     16.00      55.8450
      66     1 Fe  26    7.396191    7.179389   10.959440     16.00      55.8450
      67     1 Fe  26    7.393126    7.179273    4.327535     16.00      55.8450
      68     1 Fe  26    9.849166    8.596207    8.745940     16.00      55.8450
      69     1 Fe  26    9.849109    5.762323   13.170875     16.00      55.8450
      70     1 Fe  26    9.848878    5.761820    2.689247     16.00      55.8450
      71     1 Fe  26    7.389070    7.176060    7.111315     16.00      55.8450
      72     1 Fe  26    9.849959    8.596013   11.530687     16.00      55.8450
      73     1 Fe  26   -4.875850   11.429850   13.742764     16.00      55.8450
      74     1 Fe  26   -2.421337   12.848012    4.899795     16.00      55.8450
      75     1 Fe  26   -2.417587   10.010484    9.319227     16.00      55.8450
      76     1 Fe  26   -2.421429   12.846928    2.115693     16.00      55.8450
      77     1 Fe  26   -2.420080   10.012645    6.537551     16.00      55.8450
      78     1 Fe  26   -4.875872   11.429910   10.956476     16.00      55.8450
      79     1 Fe  26   -4.875901   11.429861    4.326679     16.00      55.8450
      80     1 Fe  26   -2.422012   12.846872    8.745971     16.00      55.8450
      81     1 Fe  26   -2.421306   10.012469   13.170383     16.00      55.8450
      82     1 Fe  26   -2.421273   10.011586    2.687947     16.00      55.8450
      83     1 Fe  26   -4.875914   11.429928    7.109534     16.00      55.8450
      84     1 Fe  26   -2.422099   12.847622   11.530692     16.00      55.8450
      85     1 Fe  26    0.032890   11.428955   13.744139     16.00      55.8450
      86     1 Fe  26    2.487306   12.842617    4.903383     16.00      55.8450
      87     1 Fe  26    2.478819   10.010499    9.313609     16.00      55.8450
      88     1 Fe  26    2.486756   12.844533    2.116624     16.00      55.8450
      89     1 Fe  26    2.481182    9.990732    6.540487     16.00      55.8450
      90     1 Fe  26    0.031592   11.430871   10.959429     16.00      55.8450
      91     1 Fe  26    0.033140   11.428232    4.327492     16.00      55.8450
      92     1 Fe  26    2.489815   12.849413    8.748954     16.00      55.8450
      93     1 Fe  26    2.486539   10.012082   13.170815     16.00      55.8450
      94     1 Fe  26    2.485832   10.006627    2.692888     16.00      55.8450
      95     1 Fe  26    0.037915   11.426337    7.111285     16.00      55.8450
      96     1 Fe  26    2.486835   12.845497   11.530780     16.00      55.8450
      97     1 Fe  26    4.940037   11.428542   13.743720     16.00      55.8450
      98     1 Fe  26    7.393520   12.846506    4.899791     16.00      55.8450
      99     1 Fe  26    7.390665   10.010602    9.319192     16.00      55.8450
     100     1 Fe  26    7.394602   12.846887    2.115696     16.00      55.8450
     101     1 Fe  26    7.393659   10.011618    6.537547     16.00      55.8450
     102     1 Fe  26    4.938307   11.428130   10.956323     16.00      55.8450
     103     1 Fe  26    4.938155   11.427586    4.328663     16.00      55.8450
     104     1 Fe  26    7.394824   12.846531    8.745954     16.00      55.8450
     105     1 Fe  26    7.394258   10.012846   13.170394     16.00      55.8450
     106     1 Fe  26    7.393418   10.013193    2.687950     16.00      55.8450
     107     1 Fe  26    4.934433   11.426931    7.108596     16.00      55.8450
     108     1 Fe  26    7.394282   12.846010   11.530702     16.00      55.8450
     109     2 O    8   -0.918921    4.345316    3.505099      6.00      15.9994
     110     2 O    8    3.991666    1.511411    7.927974      6.00      15.9994
     111     2 O    8    1.535821    2.927591   12.352762      6.00      15.9994
     112     2 O    8    4.189962    1.395931    3.506168      6.00      15.9994
     113     2 O    8    1.734722    2.805478    7.930101      6.00      15.9994
     114     2 O    8   -0.720308    4.229714   12.353400      6.00      15.9994
     115     2 O    8    1.733544    3.040483    3.503780      6.00      15.9994
     116     2 O    8   -0.743029    4.445367    7.927040      6.00      15.9994
     117     2 O    8    4.189572    1.625812   12.352229      6.00      15.9994
     118     2 O    8    0.982844    1.510507   14.562064      6.00      15.9994
     119     2 O    8    3.438043    2.923800    5.715635      6.00      15.9994
     120     2 O    8    0.981355    4.340331   10.149200      6.00      15.9994
     121     2 O    8    0.784373    4.460046   14.562603      6.00      15.9994
     122     2 O    8    0.784151    1.623440    5.717272      6.00      15.9994
     123     2 O    8    3.238467    3.040541   10.142895      6.00      15.9994
     124     2 O    8    3.237346    2.812915   14.561918      6.00      15.9994
     125     2 O    8    0.778676    4.221120    5.712787      6.00      15.9994
     126     2 O    8    0.784021    1.394874   10.140997      6.00      15.9994
     127     2 O    8    3.993694    4.337406    3.496501      6.00      15.9994
     128     2 O    8    8.898213    1.514453    7.930000      6.00      15.9994
     129     2 O    8    6.444658    2.928062   12.351771      6.00      15.9994
     130     2 O    8    9.097865    1.397040    3.506066      6.00      15.9994
     131     2 O    8    6.643948    2.809751    7.929651      6.00      15.9994
     132     2 O    8    4.189248    4.229866   12.351707      6.00      15.9994
     133     2 O    8    6.643500    3.042816    3.506580      6.00      15.9994
     134     2 O    8    4.191240    4.455854    7.931076      6.00      15.9994
     135     2 O    8    9.097763    1.626221   12.352343      6.00      15.9994
     136     2 O    8    5.891401    1.511711   14.562554      6.00      15.9994
     137     2 O    8    8.345840    2.928176    5.717525      6.00      15.9994
     138     2 O    8    5.894176    4.345014   10.140573      6.00      15.9994
     139     2 O    8    5.693469    4.460409   14.561582      6.00      15.9994
     140     2 O    8    5.693610    1.625297    5.717091      6.00      15.9994
     141     2 O    8    8.147701    3.041170   10.141722      6.00      15.9994
     142     2 O    8    8.146431    2.813986   14.562974      6.00      15.9994
     143     2 O    8    5.694450    4.229242    5.721004      6.00      15.9994
     144     2 O    8    5.692697    1.396418   10.140828      6.00      15.9994
     145     2 O    8    8.898475    4.344597    3.506092      6.00      15.9994
     146     2 O    8   13.807295    1.511450    7.928692      6.00      15.9994
     147     2 O    8   11.352524    2.928805   12.352304      6.00      15.9994
     148     2 O    8   14.006072    1.396572    3.505701      6.00      15.9994
     149     2 O    8   11.548912    2.811807    7.930002      6.00      15.9994
     150     2 O    8    9.097048    4.230195   12.352298      6.00      15.9994
     151     2 O    8   11.550854    3.043516    3.506164      6.00      15.9994
     152     2 O    8    9.100037    4.458797    7.930082      6.00      15.9994
     153     2 O    8   14.005577    1.625251   12.352466      6.00      15.9994
     154     2 O    8   10.799541    1.511128   14.562945      6.00      15.9994
     155     2 O    8   13.251525    2.924915    5.715124      6.00      15.9994
     156     2 O    8   10.797519    4.345431   10.141690      6.00      15.9994
     157     2 O    8   10.601327    4.460159   14.562940      6.00      15.9994
     158     2 O    8   10.600794    1.626636    5.717503      6.00      15.9994
     159     2 O    8   13.052896    3.040904   10.143361      6.00      15.9994
     160     2 O    8   13.054661    2.813189   14.562883      6.00      15.9994
     161     2 O    8   10.600465    4.230288    5.717564      6.00      15.9994
     162     2 O    8   10.602058    1.398578   10.141760      6.00      15.9994
     163     2 O    8   -3.373365    8.595556    3.506170      6.00      15.9994
     164     2 O    8    1.483019    5.698401    7.931062      6.00      15.9994
     165     2 O    8   -0.918721    7.179209   12.351687      6.00      15.9994
     166     2 O    8    1.738518    5.647587    3.504845      6.00      15.9994
     167     2 O    8   -0.724275    7.064555    7.931077      6.00      15.9994
     168     2 O    8   -3.174071    8.480966   12.352157      6.00      15.9994
     169     2 O    8   -0.727915    7.294734    3.496660      6.00      15.9994
     170     2 O    8   -3.174339    8.709590    7.928065      6.00      15.9994
     171     2 O    8    1.735341    5.876917   12.351630      6.00      15.9994
     172     2 O    8   -1.471162    5.761255   14.561595      6.00      15.9994
     173     2 O    8    0.943321    7.163628    5.676279      6.00      15.9994
     174     2 O    8   -1.473214    8.597335   10.142870      6.00      15.9994
     175     2 O    8   -1.669907    8.712040   14.561843      6.00      15.9994
     176     2 O    8   -1.671842    5.875928    5.720949      6.00      15.9994
     177     2 O    8    0.782650    7.294123   10.140235      6.00      15.9994
     178     2 O    8    0.783537    7.063612   14.560633      6.00      15.9994
     179     2 O    8   -1.674382    8.482868    5.715711      6.00      15.9994
     180     2 O    8   -1.671469    5.645066   10.140674      6.00      15.9994
     181     2 O    8    1.534336    8.592705    3.504733      6.00      15.9994
     182     2 O    8    6.468899    5.749097    7.926935      6.00      15.9994
     183     2 O    8    3.990048    7.179519   12.351584      6.00      15.9994
     184     2 O    8    6.643558    5.646640    3.505123      6.00      15.9994
     185     2 O    8    4.270699    7.050494    7.931069      6.00      15.9994
     186     2 O    8    1.734584    8.480825   12.351613      6.00      15.9994
     187     2 O    8    4.187045    7.296985    3.504788      6.00      15.9994
     188     2 O    8    1.706014    8.788404    7.930982      6.00      15.9994
     189     2 O    8    6.644381    5.876450   12.353456      6.00      15.9994
     190     2 O    8    3.438218    5.761911   14.560545      6.00      15.9994
     191     2 O    8    5.902143    7.179046    5.712645      6.00      15.9994
     192     2 O    8    3.438251    8.597400   10.140334      6.00      15.9994
     193     2 O    8    3.238201    8.711786   14.560533      6.00      15.9994
     194     2 O    8    3.271767    5.850428    5.676276      6.00      15.9994
     195     2 O    8    5.697650    7.294685   10.149316      6.00      15.9994
     196     2 O    8    5.692570    7.064366   14.562653      6.00      15.9994
     197     2 O    8    3.244869    8.523315    5.676187      6.00      15.9994
     198     2 O    8    3.238970    5.645798   10.140260      6.00      15.9994
     199     2 O    8    6.447368    8.596232    3.503771      6.00      15.9994
     200     2 O    8   11.348891    5.763416    7.929639      6.00      15.9994
     201     2 O    8    8.899410    7.179636   12.352346      6.00      15.9994
     202     2 O    8   11.550906    5.647219    3.506571      6.00      15.9994
     203     2 O    8    9.097078    7.064799    7.928706      6.00      15.9994
     204     2 O    8    6.643984    8.481360   12.352781      6.00      15.9994
     205     2 O    8    9.097182    7.294308    3.505735      6.00      15.9994
     206     2 O    8    6.650311    8.714803    7.930190      6.00      15.9994
     207     2 O    8   11.551014    5.876915   12.351822      6.00      15.9994
     208     2 O    8    8.346088    5.762125   14.562808      6.00      15.9994
     209     2 O    8   10.798303    7.178642    5.717079      6.00      15.9994
     210     2 O    8    8.347229    8.596781   10.140942      6.00      15.9994
     211     2 O    8    8.147736    8.711007   14.562061      6.00      15.9994
     212     2 O    8    8.150814    5.876754    5.715115      6.00      15.9994
     213     2 O    8   10.600556    7.293877   10.140766      6.00      15.9994
     214     2 O    8   10.601051    7.064202   14.562620      6.00      15.9994
     215     2 O    8    8.149215    8.482532    5.717337      6.00      15.9994
     216     2 O    8    8.149663    5.646703   10.143383      6.00      15.9994
     217     2 O    8   -5.825839   12.846277    3.505561      6.00      15.9994
     218     2 O    8   -0.925179   10.016969    7.930038      6.00      15.9994
     219     2 O    8   -3.372536   11.430032   12.351341      6.00      15.9994
     220     2 O    8   -0.720985    9.900593    3.503690      6.00      15.9994
     221     2 O    8   -3.175549   11.315862    7.929361      6.00      15.9994
     222     2 O    8   -5.627586   12.731496   12.351348      6.00      15.9994
     223     2 O    8   -3.174048   11.544375    3.505648      6.00      15.9994
     224     2 O    8   -5.627284   12.959303    7.929418      6.00      15.9994
     225     2 O    8   -0.719802   10.128309   12.352821      6.00      15.9994
     226     2 O    8   -3.925608   10.012928   14.562393      6.00      15.9994
     227     2 O    8   -1.473456   11.431342    5.717299      6.00      15.9994
     228     2 O    8   -3.925692   12.847572   10.139937      6.00      15.9994
     229     2 O    8   -4.123784   12.961064   14.562380      6.00      15.9994
     230     2 O    8   -4.124206   10.128233    5.717260      6.00      15.9994
     231     2 O    8   -1.671353   11.545666   10.140923      6.00      15.9994
     232     2 O    8   -1.670558   11.315740   14.562119      6.00      15.9994
     233     2 O    8   -4.124430   12.731528    5.717336      6.00      15.9994
     234     2 O    8   -4.123050    9.898145   10.140016      6.00      15.9994
     235     2 O    8   -0.918396   12.846377    3.505672      6.00      15.9994
     236     2 O    8    3.992952   10.016942    7.930990      6.00      15.9994
     237     2 O    8    1.535969   11.431133   12.353405      6.00      15.9994
     238     2 O    8    4.194092    9.905157    3.496481      6.00      15.9994
     239     2 O    8    1.734003   11.342675    7.926966      6.00      15.9994
     240     2 O    8   -0.720147   12.732425   12.352388      6.00      15.9994
     241     2 O    8    1.735320   11.545344    3.505140      6.00      15.9994
     242     2 O    8   -0.719627   12.961019    7.928772      6.00      15.9994
     243     2 O    8    4.189473   10.128214   12.351729      6.00      15.9994
     244     2 O    8    0.983061   10.012882   14.562606      6.00      15.9994
     245     2 O    8    3.437365   11.432032    5.720947      6.00      15.9994
     246     2 O    8    0.982236   12.849631   10.143354      6.00      15.9994
     247     2 O    8    0.784113   12.962019   14.562774      6.00      15.9994
     248     2 O    8    0.778925   10.137111    5.712606      6.00      15.9994
     249     2 O    8    3.237314   11.547248   10.140465      6.00      15.9994
     250     2 O    8    3.237691   11.315621   14.561614      6.00      15.9994
     251     2 O    8    0.782380   12.735527    5.715181      6.00      15.9994
     252     2 O    8    0.781056    9.902227   10.149321      6.00      15.9994
     253     2 O    8    3.990339   12.847231    3.506503      6.00      15.9994
     254     2 O    8    8.900293   10.014329    7.929339      6.00      15.9994
     255     2 O    8    6.444531   11.430484   12.352158      6.00      15.9994
     256     2 O    8    9.097419    9.898729    3.505598      6.00      15.9994
     257     2 O    8    6.642542   11.316349    7.928001      6.00      15.9994
     258     2 O    8    4.189200   12.732287   12.351783      6.00      15.9994
     259     2 O    8    6.643383   11.545777    3.506210      6.00      15.9994
     260     2 O    8    4.191952   12.964090    7.929660      6.00      15.9994
     261     2 O    8    9.097678   10.127883   12.351399      6.00      15.9994
     262     2 O    8    5.892543   10.012275   14.561872      6.00      15.9994
     263     2 O    8    8.346048   11.429696    5.717282      6.00      15.9994
     264     2 O    8    5.891539   12.846969   10.140780      6.00      15.9994
     265     2 O    8    5.692420   12.961363   14.562570      6.00      15.9994
     266     2 O    8    5.696209   10.130806    5.715661      6.00      15.9994
     267     2 O    8    8.146232   11.543755   10.139943      6.00      15.9994
     268     2 O    8    8.146989   11.315360   14.562445      6.00      15.9994
     269     2 O    8    5.692837   12.733364    5.717078      6.00      15.9994
     270     2 O    8    5.694802    9.899347   10.142931      6.00      15.9994




 SCF PARAMETERS         Density guess:                                   RESTART
                        --------------------------------------------------------
                        max_scf:                                             100
                        max_scf_history:                                       0
                        max_diis:                                              4
                        --------------------------------------------------------
                        eps_scf:                                        1.00E-06
                        eps_scf_history:                                0.00E+00
                        eps_diis:                                       1.00E-01
                        eps_eigval:                                     1.00E-05
                        --------------------------------------------------------
                        level_shift [a.u.]:                                 0.00
                        --------------------------------------------------------
                        Outer loop SCF in use 
                        No variables optimised in outer loop
                        eps_scf                                         1.00E-06
                        max_scf                                               50
                        No outer loop optimization
                        step_size                                       5.00E-01

 PW_GRID| Information for grid number                                          1
 PW_GRID| Grid distributed over                                   160 processors
 PW_GRID| Real space group dimensions                                   160    1
 PW_GRID| the grid is blocked:                                                NO
 PW_GRID| Cutoff [a.u.]                                                    325.0
 PW_GRID| spherical cutoff:                                                   NO
 PW_GRID|   Bounds   1           -112     112                Points:         225
 PW_GRID|   Bounds   2           -112     112                Points:         225
 PW_GRID|   Bounds   3           -105     104                Points:         210
 PW_GRID| Volume element (a.u.^3)  0.1581E-02     Volume (a.u.^3)     16811.8665
 PW_GRID| Grid span                                                    FULLSPACE
 PW_GRID|   Distribution                         Average         Max         Min
 PW_GRID|   G-Vectors                            66445.3       66600       66375
 PW_GRID|   G-Rays                                 295.3         296         295
 PW_GRID|   Real Space Points                    66445.3       94500       47250

 PW_GRID| Information for grid number                                          2
 PW_GRID| Grid distributed over                                   160 processors
 PW_GRID| Real space group dimensions                                    10   16
 PW_GRID| the grid is blocked:                                                NO
 PW_GRID| Cutoff [a.u.]                                                    108.3
 PW_GRID| spherical cutoff:                                                   NO
 PW_GRID|   Bounds   1            -66      65                Points:         132
 PW_GRID|   Bounds   2            -66      65                Points:         132
 PW_GRID|   Bounds   3            -60      59                Points:         120
 PW_GRID| Volume element (a.u.^3)  0.8041E-02     Volume (a.u.^3)     16811.8665
 PW_GRID| Grid span                                                    FULLSPACE
 PW_GRID|   Distribution                         Average         Max         Min
 PW_GRID|   G-Vectors                            13068.0       13464       12804
 PW_GRID|   G-Rays                                  99.0         102          97
 PW_GRID|   Real Space Points                    13068.0       15120       12480

 PW_GRID| Information for grid number                                          3
 PW_GRID| Grid distributed over                                   160 processors
 PW_GRID| Real space group dimensions                                    10   16
 PW_GRID| the grid is blocked:                                                NO
 PW_GRID| Cutoff [a.u.]                                                     36.1
 PW_GRID| spherical cutoff:                                                   NO
 PW_GRID|   Bounds   1            -37      37                Points:          75
 PW_GRID|   Bounds   2            -37      37                Points:          75
 PW_GRID|   Bounds   3            -35      34                Points:          70
 PW_GRID| Volume element (a.u.^3)  0.4270E-01     Volume (a.u.^3)     16811.8665
 PW_GRID| Grid span                                                    FULLSPACE
 PW_GRID|   Distribution                         Average         Max         Min
 PW_GRID|   G-Vectors                             2460.9        2775        2250
 PW_GRID|   G-Rays                                  32.8          37          30
 PW_GRID|   Real Space Points                     2460.9        2800        1960

 PW_GRID| Information for grid number                                          4
 PW_GRID| Grid distributed over                                   160 processors
 PW_GRID| Real space group dimensions                                    10   16
 PW_GRID| the grid is blocked:                                                NO
 PW_GRID| Cutoff [a.u.]                                                     12.0
 PW_GRID| spherical cutoff:                                                   NO
 PW_GRID|   Bounds   1            -22      21                Points:          44
 PW_GRID|   Bounds   2            -22      21                Points:          44
 PW_GRID|   Bounds   3            -20      19                Points:          40
 PW_GRID| Volume element (a.u.^3)  0.2171         Volume (a.u.^3)     16811.8665
 PW_GRID| Grid span                                                    FULLSPACE
 PW_GRID|   Distribution                         Average         Max         Min
 PW_GRID|   G-Vectors                              484.0         572         396
 PW_GRID|   G-Rays                                  11.0          13           9
 PW_GRID|   Real Space Points                      484.0         600         320

 PW_GRID| Information for grid number                                          5
 PW_GRID| Grid distributed over                                   160 processors
 PW_GRID| Real space group dimensions                                    10   16
 PW_GRID| the grid is blocked:                                                NO
 PW_GRID| Cutoff [a.u.]                                                      4.0
 PW_GRID| spherical cutoff:                                                   NO
 PW_GRID|   Bounds   1            -12      12                Points:          25
 PW_GRID|   Bounds   2            -12      12                Points:          25
 PW_GRID|   Bounds   3            -12      11                Points:          24
 PW_GRID| Volume element (a.u.^3)   1.121         Volume (a.u.^3)     16811.8665
 PW_GRID| Grid span                                                    FULLSPACE
 PW_GRID|   Distribution                         Average         Max         Min
 PW_GRID|   G-Vectors                               93.8         125          75
 PW_GRID|   G-Rays                                   3.8           5           3
 PW_GRID|   Real Space Points                       93.8         144          48

 PW_GRID| Information for grid number                                          6
 PW_GRID| Grid distributed over                                   160 processors
 PW_GRID| Real space group dimensions                                    10   16
 PW_GRID| the grid is blocked:                                                NO
 PW_GRID| Cutoff [a.u.]                                                      1.3
 PW_GRID| spherical cutoff:                                                   NO
 PW_GRID|   Bounds   1             -7       7                Points:          15
 PW_GRID|   Bounds   2             -7       7                Points:          15
 PW_GRID|   Bounds   3             -7       6                Points:          14
 PW_GRID| Volume element (a.u.^3)   5.337         Volume (a.u.^3)     16811.8665
 PW_GRID| Grid span                                                    FULLSPACE
 PW_GRID|   Distribution                         Average         Max         Min
 PW_GRID|   G-Vectors                               19.7          30          15
 PW_GRID|   G-Rays                                   1.3           2           1
 PW_GRID|   Real Space Points                       19.7          28           0

 PW_GRID| Information for grid number                                          7
 PW_GRID| Grid distributed over                                   160 processors
 PW_GRID| Real space group dimensions                                    10   16
 PW_GRID| the grid is blocked:                                                NO
 PW_GRID| Cutoff [a.u.]                                                      0.4
 PW_GRID| spherical cutoff:                                                   NO
 PW_GRID|   Bounds   1             -4       4                Points:           9
 PW_GRID|   Bounds   2             -4       4                Points:           9
 PW_GRID|   Bounds   3             -3       3                Points:           7
 PW_GRID| Volume element (a.u.^3)   29.65         Volume (a.u.^3)     16811.8665
 PW_GRID| Grid span                                                    FULLSPACE
 PW_GRID|   Distribution                         Average         Max         Min
 PW_GRID|   G-Vectors                                3.5           9           0
 PW_GRID|   G-Rays                                   0.4           1           0
 PW_GRID|   Real Space Points                        3.5           7           0

 PW_GRID| Information for grid number                                          8
 PW_GRID| Grid distributed over                                   160 processors
 PW_GRID| Real space group dimensions                                    10   16
 PW_GRID| the grid is blocked:                                                NO
 PW_GRID| Cutoff [a.u.]                                                      0.1
 PW_GRID| spherical cutoff:                                                   NO
 PW_GRID|   Bounds   1             -2       2                Points:           5
 PW_GRID|   Bounds   2             -2       2                Points:           5
 PW_GRID|   Bounds   3             -2       2                Points:           5
 PW_GRID| Volume element (a.u.^3)   134.5         Volume (a.u.^3)     16811.8665
 PW_GRID| Grid span                                                    FULLSPACE
 PW_GRID|   Distribution                         Average         Max         Min
 PW_GRID|   G-Vectors                                0.8           5           0
 PW_GRID|   G-Rays                                   0.2           1           0
 PW_GRID|   Real Space Points                        0.8           5           0

 PW_GRID| Information for grid number                                          9
 PW_GRID| Grid distributed over                                   160 processors
 PW_GRID| Real space group dimensions                                    10   16
 PW_GRID| the grid is blocked:                                                NO
 PW_GRID| Cutoff [a.u.]                                                      0.0
 PW_GRID| spherical cutoff:                                                   NO
 PW_GRID|   Bounds   1             -1       1                Points:           3
 PW_GRID|   Bounds   2             -1       1                Points:           3
 PW_GRID|   Bounds   3             -1       1                Points:           3
 PW_GRID| Volume element (a.u.^3)   622.7         Volume (a.u.^3)     16811.8665
 PW_GRID| Grid span                                                    FULLSPACE
 PW_GRID|   Distribution                         Average         Max         Min
 PW_GRID|   G-Vectors                                0.2           3           0
 PW_GRID|   G-Rays                                   0.1           1           0
 PW_GRID|   Real Space Points                        0.2           3           0

 PW_GRID| Information for grid number                                         10
 PW_GRID| Grid distributed over                                   160 processors
 PW_GRID| Real space group dimensions                                    10   16
 PW_GRID| the grid is blocked:                                                NO
 PW_GRID| Cutoff [a.u.]                                                      0.0
 PW_GRID| spherical cutoff:                                                   NO
 PW_GRID|   Bounds   1              0       0                Points:           1
 PW_GRID|   Bounds   2              0       0                Points:           1
 PW_GRID|   Bounds   3              0       0                Points:           1
 PW_GRID| Volume element (a.u.^3)  0.1681E+05     Volume (a.u.^3)     16811.8665
 PW_GRID| Grid span                                                    FULLSPACE
 PW_GRID|   Distribution                         Average         Max         Min
 PW_GRID|   G-Vectors                                0.0           1           0
 PW_GRID|   G-Rays                                   0.0           1           0
 PW_GRID|   Real Space Points                        0.0           1           0

 POISSON| Solver                                                        PERIODIC
 POISSON| Periodicity                                                        XYZ

 RS_GRID| Information for grid number                                          1
 RS_GRID|   Bounds   1           -112     112                Points:         225
 RS_GRID|   Bounds   2           -112     112                Points:         225
 RS_GRID|   Bounds   3           -105     104                Points:         210
 RS_GRID| Real space distribution over                                  5 groups
 RS_GRID| Real space distribution along direction                              1
 RS_GRID| Border size                                                         39
 RS_GRID| Real space distribution over                                  8 groups
 RS_GRID| Real space distribution along direction                              2
 RS_GRID| Border size                                                         39
 RS_GRID| Real space distribution over                                  4 groups
 RS_GRID| Real space distribution along direction                              3
 RS_GRID| Border size                                                         39
 RS_GRID|   Distribution                         Average         Max         Min
 RS_GRID|   Planes                                 123.0         123         123
 RS_GRID|   Distribution                         Average         Max         Min
 RS_GRID|   Planes                                 106.1         107         106
 RS_GRID|   Distribution                         Average         Max         Min
 RS_GRID|   Planes                                 130.5         131         130

 RS_GRID| Information for grid number                                          2
 RS_GRID|   Bounds   1            -66      65                Points:         132
 RS_GRID|   Bounds   2            -66      65                Points:         132
 RS_GRID|   Bounds   3            -60      59                Points:         120
 RS_GRID| Real space fully replicated
 RS_GRID| Group size                                                           1

 RS_GRID| Information for grid number                                          3
 RS_GRID|   Bounds   1            -37      37                Points:          75
 RS_GRID|   Bounds   2            -37      37                Points:          75
 RS_GRID|   Bounds   3            -35      34                Points:          70
 RS_GRID| Real space fully replicated
 RS_GRID| Group size                                                           1

 RS_GRID| Information for grid number                                          4
 RS_GRID|   Bounds   1            -22      21                Points:          44
 RS_GRID|   Bounds   2            -22      21                Points:          44
 RS_GRID|   Bounds   3            -20      19                Points:          40
 RS_GRID| Real space fully replicated
 RS_GRID| Group size                                                           1

 RS_GRID| Information for grid number                                          5
 RS_GRID|   Bounds   1            -12      12                Points:          25
 RS_GRID|   Bounds   2            -12      12                Points:          25
 RS_GRID|   Bounds   3            -12      11                Points:          24
 RS_GRID| Real space fully replicated
 RS_GRID| Group size                                                           1

 RS_GRID| Information for grid number                                          6
 RS_GRID|   Bounds   1             -7       7                Points:          15
 RS_GRID|   Bounds   2             -7       7                Points:          15
 RS_GRID|   Bounds   3             -7       6                Points:          14
 RS_GRID| Real space fully replicated
 RS_GRID| Group size                                                           1

 RS_GRID| Information for grid number                                          7
 RS_GRID|   Bounds   1             -4       4                Points:           9
 RS_GRID|   Bounds   2             -4       4                Points:           9
 RS_GRID|   Bounds   3             -3       3                Points:           7
 RS_GRID| Real space fully replicated
 RS_GRID| Group size                                                           1

 RS_GRID| Information for grid number                                          8
 RS_GRID|   Bounds   1             -2       2                Points:           5
 RS_GRID|   Bounds   2             -2       2                Points:           5
 RS_GRID|   Bounds   3             -2       2                Points:           5
 RS_GRID| Real space fully replicated
 RS_GRID| Group size                                                           1

 RS_GRID| Information for grid number                                          9
 RS_GRID|   Bounds   1             -1       1                Points:           3
 RS_GRID|   Bounds   2             -1       1                Points:           3
 RS_GRID|   Bounds   3             -1       1                Points:           3
 RS_GRID| Real space fully replicated
 RS_GRID| Group size                                                           1

 RS_GRID| Information for grid number                                         10
 RS_GRID|   Bounds   1              0       0                Points:           1
 RS_GRID|   Bounds   2              0       0                Points:           1
 RS_GRID|   Bounds   3              0       0                Points:           1
 RS_GRID| Real space fully replicated
 RS_GRID| Group size                                                           1

 Spin 1

 Number of electrons:                                                       1351
 Number of occupied orbitals:                                               1351
 Number of molecular orbitals:                                              1351

 Spin 2

 Number of electrons:                                                       1350
 Number of occupied orbitals:                                               1350
 Number of molecular orbitals:                                              1350

 Number of orbital functions:                                               3348
 Number of independent orbital functions:                                   3348

 Extrapolation method: initial_guess


 SCF WAVEFUNCTION OPTIMIZATION

  ----------------------------------- OT ---------------------------------------
  Minimizer      : CG                  : conjugate gradient
  Preconditioner : FULL_KINETIC        : inversion of T + eS
  Precond_solver : DEFAULT
  Line search    : 2PNT                : 2 energies, one gradient
  stepsize       :    0.15000000                  energy_gap     :    0.20000000
  eps_taylor     :   0.10000E-15                  max_taylor     :             4
  ----------------------------------- OT ---------------------------------------

  Step     Update method      Time    Convergence         Total energy    Change
  ------------------------------------------------------------------------------

 *** WARNING in dft_plus_u.F:1457 :: DFT+U energy contibution is negative ***
 *** possibly due to unphysical Mulliken charges. Check your input, if    ***
 *** this warning persists or try a different method!                     ***

     1 OT CG       0.15E+00   12.6     0.00000072    -15928.0904853961 -1.59E+04

  *** SCF run converged in     1 steps ***


  Electronic density on regular grids:      -2700.9999999571        0.0000000429
  Core density on regular grids:             2699.9999999993       -0.0000000007
  Total charge density on r-space grids:       -0.9999999578
  Total charge density g-space grids:          -0.9999999578

  Overlap energy of the core charge distribution:               0.00000000000169
  Self energy of the core charge distribution:             -28423.46627227471618
  Core Hamiltonian energy:                                   7993.84567020009672
  Hartree energy:                                            6509.28711230612225
  Exchange-correlation energy:                              -2006.68485024159190

  DFT+U energy:                                                -1.07214538599581

  Total energy:                                            -15928.09048539608193

  outer SCF iter =    1 RMS gradient =   0.72E-06 energy =     -15928.0904853961
  outer SCF loop converged in   1 iterations or    1 steps


  Integrated absolute spin density  :                             465.8848793219
  Ideal and single determinant S**2 :                    0.750000     259.065373

 !-----------------------------------------------------------------------------!
                     Mulliken Population Analysis

 #  Atom  Element  Kind  Atomic population (alpha,beta) Net charge  Spin moment
       1     Fe       1         9.666132     5.308703     1.025164     4.357429
       2     Fe       1         9.664670     5.314611     1.020719     4.350059
       3     Fe       1         9.666585     5.309017     1.024397     4.357568
       4     Fe       1         5.308997     9.667918     1.023085    -4.358921
       5     Fe       1         5.309098     9.666280     1.024622    -4.357181
       6     Fe       1         5.309905     9.665642     1.024453    -4.355738
       7     Fe       1         9.667404     5.308825     1.023771     4.358579
       8     Fe       1         9.662832     5.312709     1.024459     4.350124
       9     Fe       1         9.666184     5.308906     1.024910     4.357277
      10     Fe       1         5.308745     9.665731     1.025524    -4.356985
      11     Fe       1         5.308276     9.664515     1.027209    -4.356238
      12     Fe       1         5.308312     9.667665     1.024023    -4.359354
      13     Fe       1         9.666007     5.308600     1.025393     4.357407
      14     Fe       1         9.664952     5.308730     1.026318     4.356222
      15     Fe       1         9.666552     5.309456     1.023992     4.357096
      16     Fe       1         5.308493     9.666607     1.024900    -4.358114
      17     Fe       1         5.308863     9.666035     1.025102    -4.357172
      18     Fe       1         5.308858     9.665255     1.025886    -4.356397
      19     Fe       1         9.666604     5.309618     1.023778     4.356987
      20     Fe       1         9.666453     5.311397     1.022150     4.355056
      21     Fe       1         9.665993     5.308632     1.025374     4.357361
      22     Fe       1         5.308838     9.665655     1.025507    -4.356817
      23     Fe       1         5.308586     9.666175     1.025238    -4.357589
      24     Fe       1         5.308997     9.666831     1.024172    -4.357833
      25     Fe       1         9.666159     5.308792     1.025049     4.357367
      26     Fe       1         9.664945     5.308728     1.026327     4.356217
      27     Fe       1         9.666563     5.309465     1.023972     4.357099
      28     Fe       1         5.308488     9.666608     1.024904    -4.358120
      29     Fe       1         5.308869     9.666030     1.025102    -4.357161
      30     Fe       1         5.308664     9.665789     1.025547    -4.357125
      31     Fe       1         9.666419     5.308559     1.025022     4.357860
      32     Fe       1         9.666461     5.311389     1.022151     4.355072
      33     Fe       1         9.665995     5.308626     1.025379     4.357370
      34     Fe       1         5.308840     9.665653     1.025507    -4.356813
      35     Fe       1         5.309937     9.666367     1.023696    -4.356430
      36     Fe       1         5.308992     9.666827     1.024181    -4.357835
      37     Fe       1         9.666011     5.308601     1.025387     4.357410
      38     Fe       1         9.664696     5.314589     1.020715     4.350106
      39     Fe       1         9.669093     5.307880     1.023027     4.361212
      40     Fe       1         5.308997     9.667913     1.023089    -4.358916
      41     Fe       1         5.313901     9.667190     1.018910    -4.353289
      42     Fe       1         5.308860     9.665259     1.025882    -4.356399
[...]
 flops   431 x    70 x    32            214327680     100.0%      0.0%      0.0%
 flops   425 x    71 x    32            214363200     100.0%      0.0%      0.0%
 flops   192 x    70 x    89            215308800     100.0%      0.0%      0.0%
 flops   431 x    71 x    32            217389504     100.0%      0.0%      0.0%
 flops   192 x    71 x    89            218384640     100.0%      0.0%      0.0%
 flops     8 x    32 x    32            222953472     100.0%      0.0%      0.0%
 flops    19 x     7 x    19            235799424     100.0%      0.0%      0.0%
 flops   410 x    96 x    64            241827840     100.0%      0.0%      0.0%
 flops    19 x     6 x    19            252642240     100.0%      0.0%      0.0%
 flops   166 x    96 x    89            255294720     100.0%      0.0%      0.0%
 flops   167 x    96 x    89            256832640     100.0%      0.0%      0.0%
 flops   160 x    70 x    81            299376000     100.0%      0.0%      0.0%
 flops   160 x    71 x    81            303652800     100.0%      0.0%      0.0%
 flops   410 x    70 x    89            306516000     100.0%      0.0%      0.0%
 flops   410 x    71 x    89            310894800     100.0%      0.0%      0.0%
 flops    19 x    19 x    38            322976592     100.0%      0.0%      0.0%
 flops    19 x    19 x    39            331475976     100.0%      0.0%      0.0%
 flops   413 x    96 x    78            346364928     100.0%      0.0%      0.0%
 flops   415 x    96 x    78            348042240     100.0%      0.0%      0.0%
 flops   192 x    96 x    32            349175808     100.0%      0.0%      0.0%
 flops    19 x    32 x    32            353009664     100.0%      0.0%      0.0%
 flops   421 x    96 x    78            353074176     100.0%      0.0%      0.0%
 flops   423 x    96 x    78            354751488     100.0%      0.0%      0.0%
 flops   425 x    96 x    78            356428800     100.0%      0.0%      0.0%
 flops   431 x    96 x    78            361460736     100.0%      0.0%      0.0%
 flops   410 x    70 x    32            407769600     100.0%      0.0%      0.0%
 flops   410 x    71 x    32            413594880     100.0%      0.0%      0.0%
 flops   166 x    64 x    32            427679744     100.0%      0.0%      0.0%
 flops   167 x    64 x    32            430256128     100.0%      0.0%      0.0%
 flops   160 x    64 x    64            445644800     100.0%      0.0%      0.0%
 flops   160 x    70 x    89            448560000     100.0%      0.0%      0.0%
 flops   160 x    71 x    89            454968000     100.0%      0.0%      0.0%
 flops   192 x    96 x    78            483065856     100.0%      0.0%      0.0%
 flops   413 x    96 x    81            565221888     100.0%      0.0%      0.0%
 flops   415 x    96 x    81            567959040     100.0%      0.0%      0.0%
 flops   421 x    96 x    81            576170496     100.0%      0.0%      0.0%
 flops   423 x    96 x    81            578907648     100.0%      0.0%      0.0%
 flops   425 x    96 x    81            581644800     100.0%      0.0%      0.0%
 flops   431 x    96 x    81            589856256     100.0%      0.0%      0.0%
 flops   166 x    64 x    78            591671808     100.0%      0.0%      0.0%
 flops   167 x    64 x    78            595236096     100.0%      0.0%      0.0%
 flops   410 x    96 x    78            687697920     100.0%      0.0%      0.0%
 flops   413 x    64 x    64            690192384     100.0%      0.0%      0.0%
 flops   415 x    64 x    64            693534720     100.0%      0.0%      0.0%
 flops   421 x    64 x    64            703561728     100.0%      0.0%      0.0%
 flops   423 x    64 x    64            706904064     100.0%      0.0%      0.0%
 flops   425 x    64 x    64            710246400     100.0%      0.0%      0.0%
 flops   431 x    64 x    64            720273408     100.0%      0.0%      0.0%
 flops   160 x    96 x    32            727449600     100.0%      0.0%      0.0%
 flops   192 x    96 x    81            788299776     100.0%      0.0%      0.0%
 flops   413 x    96 x    89            846881280     100.0%      0.0%      0.0%
 flops   415 x    96 x    89            850982400     100.0%      0.0%      0.0%
 flops   421 x    96 x    89            863285760     100.0%      0.0%      0.0%
 flops     8 x     8 x    64            865271808     100.0%      0.0%      0.0%
 flops   423 x    96 x    89            867386880     100.0%      0.0%      0.0%
 flops   425 x    96 x    89            871488000     100.0%      0.0%      0.0%
 flops   431 x    96 x    89            883791360     100.0%      0.0%      0.0%
 flops   166 x    64 x    81            965530368     100.0%      0.0%      0.0%
 flops   167 x    64 x    81            971346816     100.0%      0.0%      0.0%
 flops   160 x    96 x    78           1006387200     100.0%      0.0%      0.0%
 flops   410 x    96 x    81           1122232320     100.0%      0.0%      0.0%
 flops   413 x    96 x    32           1126637568     100.0%      0.0%      0.0%
 flops   415 x    96 x    32           1132093440     100.0%      0.0%      0.0%
 flops   421 x    96 x    32           1148461056     100.0%      0.0%      0.0%
 flops   423 x    96 x    32           1153916928     100.0%      0.0%      0.0%
 flops   425 x    96 x    32           1159372800     100.0%      0.0%      0.0%
 flops   431 x    96 x    32           1175740416     100.0%      0.0%      0.0%
 flops   192 x    96 x    89           1181122560     100.0%      0.0%      0.0%
 flops    19 x     8 x    64           1361608704     100.0%      0.0%      0.0%
 flops     8 x    19 x    64           1361608704     100.0%      0.0%      0.0%
 flops   410 x    64 x    64           1370357760     100.0%      0.0%      0.0%
 flops   166 x    64 x    89           1446670080     100.0%      0.0%      0.0%
 flops   167 x    64 x    89           1455384960     100.0%      0.0%      0.0%
 flops   160 x    96 x    81           1642291200     100.0%      0.0%      0.0%
 flops   410 x    96 x    89           1681459200     100.0%      0.0%      0.0%
 flops   413 x    64 x    78           1962734592     100.0%      0.0%      0.0%
 flops   415 x    64 x    78           1972239360     100.0%      0.0%      0.0%
 flops   192 x    64 x    32           1978662912     100.0%      0.0%      0.0%
 flops   421 x    64 x    78           2000753664     100.0%      0.0%      0.0%
 flops   423 x    64 x    78           2010258432     100.0%      0.0%      0.0%
 flops   425 x    64 x    78           2019763200     100.0%      0.0%      0.0%
 flops   431 x    64 x    78           2048277504     100.0%      0.0%      0.0%
 flops    19 x    19 x    64           2175842304     100.0%      0.0%      0.0%
 flops   410 x    96 x    32           2236907520     100.0%      0.0%      0.0%
 flops   160 x    96 x    89           2460672000     100.0%      0.0%      0.0%
 flops   192 x    64 x    78           2737373184     100.0%      0.0%      0.0%
 flops   413 x    64 x    81           3202924032     100.0%      0.0%      0.0%
 flops   415 x    64 x    81           3218434560     100.0%      0.0%      0.0%
 flops   421 x    64 x    81           3264966144     100.0%      0.0%      0.0%
 flops   423 x    64 x    81           3280476672     100.0%      0.0%      0.0%
 flops   425 x    64 x    81           3295987200     100.0%      0.0%      0.0%
 flops   431 x    64 x    81           3342518784     100.0%      0.0%      0.0%
 flops   410 x    64 x    78           3896954880     100.0%      0.0%      0.0%
 flops   160 x    64 x    32           4122214400     100.0%      0.0%      0.0%
 flops   192 x    64 x    81           4467032064     100.0%      0.0%      0.0%
 flops   413 x    64 x    89           4798993920     100.0%      0.0%      0.0%
 flops   415 x    64 x    89           4822233600     100.0%      0.0%      0.0%
 flops   421 x    64 x    89           4891952640     100.0%      0.0%      0.0%
 flops   423 x    64 x    89           4915192320     100.0%      0.0%      0.0%
 flops   425 x    64 x    89           4938432000     100.0%      0.0%      0.0%
 flops   431 x    64 x    89           5008151040     100.0%      0.0%      0.0%
 flops   160 x    64 x    78           5702860800     100.0%      0.0%      0.0%
 flops   410 x    64 x    81           6359316480     100.0%      0.0%      0.0%
 flops   413 x    64 x    32           6384279552     100.0%      0.0%      0.0%
 flops   415 x    64 x    32           6415196160     100.0%      0.0%      0.0%
 flops   421 x    64 x    32           6507945984     100.0%      0.0%      0.0%
 flops   423 x    64 x    32           6538862592     100.0%      0.0%      0.0%
 flops   425 x    64 x    32           6569779200     100.0%      0.0%      0.0%
 flops   431 x    64 x    32           6662529024     100.0%      0.0%      0.0%
 flops   192 x    64 x    89           6693027840     100.0%      0.0%      0.0%
 flops     8 x     8 x    32           8003764224     100.0%      0.0%      0.0%
 flops   160 x    64 x    81           9306316800     100.0%      0.0%      0.0%
 flops   410 x    64 x    89           9528268800     100.0%      0.0%      0.0%
 flops    19 x     8 x    32          12594880512     100.0%      0.0%      0.0%
 flops     8 x    19 x    32          12594880512     100.0%      0.0%      0.0%
 flops   410 x    64 x    32          12675809280     100.0%      0.0%      0.0%
 flops   160 x    64 x    89          13943808000     100.0%      0.0%      0.0%
 flops    19 x    19 x    32          20126541312     100.0%      0.0%      0.0%
 flops     8 x    32 x     8          40633270272     100.0%      0.0%      0.0%
 flops    19 x    32 x     8          64336011264     100.0%      0.0%      0.0%
 flops     8 x    32 x    19          64336011264     100.0%      0.0%      0.0%
 flops    19 x    32 x    19         101865351168     100.0%      0.0%      0.0%
 flops inhomo. stacks                 39421380642     100.0%      0.0%      0.0%
 flops total                       617.351245E+09     100.0%      0.0%      0.0%
 flops max/rank                      5.455534E+09     100.0%      0.0%      0.0%
 matmuls inhomo. stacks                     11200     100.0%      0.0%      0.0%
 matmuls total                           34204320     100.0%      0.0%      0.0%
 number of processed stacks                460832     100.0%      0.0%      0.0%
 average stack size                                    74.2       0.0       0.0
 marketing flops                   719.929737E+09
 -------------------------------------------------------------------------------
 # multiplications                             35
 max memory usage/rank             199.798784E+06
 # max total images/rank                        5
 # max 3D layers                                1
 # MPI messages exchanged                  744800
 MPI messages size (bytes):
  total size                        53.112107E+09
  min size                           0.000000E+00
  max size                         334.456000E+03
  average size                      71.310562E+03
 MPI breakdown and total messages size (bytes):
             size <=      128               71440                        0
       128 < size <=     8192                1406                 11517952
      8192 < size <=    32768              120802               2178514008
     32768 < size <=   131072              463676              27335046008
    131072 < size <=  4194304               87476              23587023168
   4194304 < size <= 16777216                   0                        0
  16777216 < size                               0                        0
 -------------------------------------------------------------------------------

 *** WARNING in dbcsr/mm/dbcsr_mm.F:268 :: Using a non-square number of ***
 *** MPI ranks might lead to poor performance.                          ***
 *** Used ranks: 160                                                    ***
 *** Suggested: 169 324                                                 ***

 -------------------------------------------------------------------------------

 MEMORY| Estimated peak process memory [MiB]                                 775

 -------------------------------------------------------------------------------
 ----                             MULTIGRID INFO                            ----
 -------------------------------------------------------------------------------
 count for grid        1:       13646981          cutoff [a.u.]          325.00
 count for grid        2:        6477675          cutoff [a.u.]          108.33
 count for grid        3:        5897034          cutoff [a.u.]           36.11
 count for grid        4:        5222693          cutoff [a.u.]           12.04
 count for grid        5:        1981120          cutoff [a.u.]            4.01
 count for grid        6:              0          cutoff [a.u.]            1.34
 count for grid        7:              0          cutoff [a.u.]            0.45
 count for grid        8:              0          cutoff [a.u.]            0.15
 count for grid        9:              0          cutoff [a.u.]            0.05
 count for grid       10:              0          cutoff [a.u.]            0.02
 total gridlevel count  :       33225503

 -------------------------------------------------------------------------------
 -                                                                             -
 -                         MESSAGE PASSING PERFORMANCE                         -
 -                                                                             -
 -------------------------------------------------------------------------------

 ROUTINE             CALLS      AVE VOLUME [Bytes]
 MP_Group               29
 MP_Bcast             3073                  98384.
 MP_Allreduce         2914                 586829.
 MP_Sync           1457116
 MP_Alltoall          2132                1233985.
 MP_ISendRecv       171720                  16629.
 MP_Wait            184900
 MP_ISend            21986                  94483.
 MP_IRecv            21296                  96573.
 MP_Recv           1442868                   1730.
 MP_Memory            4320
 -------------------------------------------------------------------------------


 -------------------------------------------------------------------------------
 -                                                                             -
 -                           R E F E R E N C E S                               -
 -                                                                             -
 -------------------------------------------------------------------------------
 
 CP2K version 6.1, the CP2K developers group (2018).
 CP2K is freely available from https://www.cp2k.org/ .

 Schuett, Ole; Messmer, Peter; Hutter, Juerg; VandeVondele, Joost. 
 Electronic Structure Calculations on Graphics Processing Units, John Wiley & Sons, Ltd, 173-190 (2016). 
 GPU-Accelerated Sparse Matrix-Matrix Multiplication for Linear Scaling Density Functional Theory.
 http://dx.doi.org/10.1002/9781118670712.ch8


 Borstnik, U; VandeVondele, J; Weber, V; Hutter, J. 
 PARALLEL COMPUTING, 40 (5-6), 47-58 (2014). 
 Sparse matrix multiplication: The distributed block-compressed sparse
 row library.
 http://dx.doi.org/10.1016/j.parco.2014.03.012


 Hutter, J; Iannuzzi, M; Schiffmann, F; VandeVondele, J. 
 WILEY INTERDISCIPLINARY REVIEWS-COMPUTATIONAL MOLECULAR SCIENCE, 4 (1), 15-25 (2014). 
 CP2K: atomistic simulations of condensed matter systems.
 http://dx.doi.org/10.1002/wcms.1159


 Krack, M. 
 THEORETICAL CHEMISTRY ACCOUNTS, 114 (1-3), 145-152 (2005). 
 Pseudopotentials for H to Kr optimized for gradient-corrected
 exchange-correlation functionals.
 http://dx.doi.org/10.1007/s00214-005-0655-y


 VandeVondele, J; Krack, M; Mohamed, F; Parrinello, M; Chassaing, T;
 Hutter, J. COMPUTER PHYSICS COMMUNICATIONS, 167 (2), 103-128 (2005). 
 QUICKSTEP: Fast and accurate density functional calculations using a
 mixed Gaussian and plane waves approach.
 http://dx.doi.org/10.1016/j.cpc.2004.12.014


 Frigo, M; Johnson, SG. 
 PROCEEDINGS OF THE IEEE, 93 (2), 216-231 (2005). 
 The design and implementation of FFTW3.
 http://dx.doi.org/10.1109/JPROC.2004.840301


 VandeVondele, J; Hutter, J. 
 JOURNAL OF CHEMICAL PHYSICS, 118 (10), 4365-4369 (2003). 
 An efficient orbital transformation method for electronic structure
 calculations.
 http://dx.doi.org/10.1063/1.1543154


 Hartwigsen, C; Goedecker, S; Hutter, J. 
 PHYSICAL REVIEW B, 58 (7), 3641-3662 (1998). 
 Relativistic separable dual-space Gaussian pseudopotentials from H to Rn.
 http://dx.doi.org/10.1103/PhysRevB.58.3641


 Dudarev, SL; Botton, GA; Savrasov, SY; Humphreys, CJ; Sutton, AP. 
 PHYSICAL REVIEW B, 57 (3), 1505-1509 (1998). 
 Electron-energy-loss spectra and the structural stability of
 nickel oxide: An LSDA+U study.
 http://dx.doi.org/10.1103/PhysRevB.57.1505


 Lippert, G; Hutter, J; Parrinello, M. 
 MOLECULAR PHYSICS, 92 (3), 477-487 (1997). 
 A hybrid Gaussian and plane wave density functional scheme.
 http://dx.doi.org/10.1080/002689797170220


 Dudarev, SL; Manh, DN; Sutton, AP. 
 PHILOSOPHICAL MAGAZINE B, 75 (5), 613-628 (1997). 
 Effect of Mott-Hubbard correlations on the electronic
 structure and structural stability of uranium dioxide.
 http://dx.doi.org/10.1080/13642819708202343


 Goedecker, S; Teter, M; Hutter, J. 
 PHYSICAL REVIEW B, 54 (3), 1703-1710 (1996). 
 Separable dual-space Gaussian pseudopotentials.
 http://dx.doi.org/10.1103/PhysRevB.54.1703


 BECKE, AD. PHYSICAL REVIEW A, 38 (6), 3098-3100 (1988). 
 DENSITY-FUNCTIONAL EXCHANGE-ENERGY APPROXIMATION WITH CORRECT
 ASYMPTOTIC-BEHAVIOR.
 http://dx.doi.org/10.1103/PhysRevA.38.3098


 LEE, CT; YANG, WT; PARR, RG. 
 PHYSICAL REVIEW B, 37 (2), 785-789 (1988). 
 DEVELOPMENT OF THE COLLE-SALVETTI CORRELATION-ENERGY FORMULA INTO A
 FUNCTIONAL OF THE ELECTRON-DENSITY.
 http://dx.doi.org/10.1103/PhysRevB.37.785


 -------------------------------------------------------------------------------
 -                                                                             -
 -                                T I M I N G                                  -
 -                                                                             -
 -------------------------------------------------------------------------------
 SUBROUTINE                       CALLS  ASD         SELF TIME        TOTAL TIME
                                MAXIMUM       AVERAGE  MAXIMUM  AVERAGE  MAXIMUM
 CP2K                                 1  1.0     0.46     0.54 15634.27 15634.29
 qs_energies                          1  2.0     0.03     0.06 15630.95 15632.11
 qs_energies_properties               1  3.0     0.00     0.00 15604.70 15605.86
 maximal_orbital_analysis             1  4.0  2055.64  2103.98 15604.70 15605.86
 moax_frg                             3  5.0 12738.12 13113.52 13496.56 13497.69
 cp_gemm                             87  6.5     0.00     0.00   435.62   558.88
 cp_gemm_fm_gemm                     87  7.5     0.00     0.00   435.62   558.88
 cp_fm_gemm                          87  8.5   435.62   558.88   435.62   558.88
 orbmoa_frg                           6  6.0     7.71    85.41   365.27   367.35
 -------------------------------------------------------------------------------

 The number of warnings for this run is : 2
 
 -------------------------------------------------------------------------------
  **** **** ******  **  PROGRAM ENDED AT                 2020-02-18 15:29:41.882
 ***** ** ***  *** **   PROGRAM RAN ON            cpn-v11-29-01.compute.cbls.ccr
 **    ****   ******    PROGRAM RAN BY                                  pavankum
 ***** **    ** ** **   PROGRAM PROCESS ID                                 68996
  **** **  *******  **  PROGRAM STOPPED IN /projects/academic/mdupuis2/pavan/MOA
                                           /Hematite/state1
