 DBCSR| Multiplication driver                                               BLAS
 DBCSR| Multrec recursion limit                                              512
 DBCSR| Multiplication stack size                                           1000
 DBCSR| Maximum elements for images                                    UNLIMITED
 DBCSR| Multiplicative factor virtual images                                   1
 DBCSR| Multiplication size stacks                                             3
 DBCSR| Number of 3D layers                                               SINGLE
 DBCSR| Use MPI memory allocation                                              T
 DBCSR| Use RMA algorithm                                                      F
 DBCSR| Use Communication thread                                               T
 DBCSR| Communication thread load                                             87


  **** **** ******  **  PROGRAM STARTED AT               2019-07-25 10:49:20.911
 ***** ** ***  *** **   PROGRAM STARTED ON        cpn-p28-36.cbls.ccr.buffalo.ed
 **    ****   ******    PROGRAM STARTED BY                              pavankum
 ***** **    ** ** **   PROGRAM PROCESS ID                                 74471
  **** **  *******  **  PROGRAM STARTED IN /projects/academic/mdupuis2/pavan/VAB
                                           _calculation/results_for_paper/1.He2+
                                           /r_3

 CP2K| version string:                                          CP2K version 6.1
 CP2K| source code revision number:                                    svn:18464
 CP2K| cp2kflags: libint fftw3 libxc parallel mpi3 scalapack libderiv_max_am1=5 
 CP2K|            libint_max_am=6
 CP2K| is freely available from                            https://www.cp2k.org/
 CP2K| Program compiled at                          Fri Nov 30 14:17:09 EST 2018
 CP2K| Program compiled on                       srv-p22-12.cbls.ccr.buffalo.edu
 CP2K| Program compiled for                                                local
 CP2K| Data directory path    /projects/academic/mdupuis2/pavan/cp2k/cp2k-6.1/da
 CP2K| Input file name                                                 input.inp

 GLOBAL| Force Environment number                                              3
 GLOBAL| Basis set file name                                           BASIS_SET
 GLOBAL| Potential file name                                           POTENTIAL
 GLOBAL| MM Potential file name                                     MM_POTENTIAL
 GLOBAL| Coordinate file name                                     ./geometry.xyz
 GLOBAL| Force Environment number                                              1
 GLOBAL| Basis set file name                                          ./HE_onlyS
 GLOBAL| Potential file name                                         ./POTENTIAL
 GLOBAL| MM Potential file name                                     MM_POTENTIAL
 GLOBAL| Coordinate file name                                       ./state0.xyz
 GLOBAL| Force Environment number                                              2
 GLOBAL| Basis set file name                                          ./HE_onlyS
 GLOBAL| Potential file name                                         ./POTENTIAL
 GLOBAL| MM Potential file name                                     MM_POTENTIAL
 GLOBAL| Coordinate file name                                       ./state1.xyz
 GLOBAL| Method name                                                        CP2K
 GLOBAL| Project name                                                      p_he_
 GLOBAL| Preferred FFT library                                             FFTW3
 GLOBAL| Preferred diagonalization lib.                                       SL
 GLOBAL| Run type                                                         ENERGY
 GLOBAL| All-to-all communication in single precision                          F
 GLOBAL| FFTs using library dependent lengths                                  T
 GLOBAL| Global print level                                               MEDIUM
 GLOBAL| Total number of message passing processes                             8
 GLOBAL| Number of threads for this process                                    1
 GLOBAL| This output is from process                                           0
 GLOBAL| CPU model name :  Intel(R) Xeon(R) CPU E5-2650 v3 @ 2.30GHz

 MEMORY| system memory details [Kb]
 MEMORY|                        rank 0           min           max       average
 MEMORY| MemTotal            131740876     131740876     131740876     131740876
 MEMORY| MemFree             126948036     126948036     126948036     126948036
 MEMORY| Buffers                340768        340768        340768        340768
 MEMORY| Cached                1365080       1365080       1365080       1365080
 MEMORY| Slab                   317660        317660        317660        317660
 MEMORY| SReclaimable           161744        161744        161744        161744
 MEMORY| MemLikelyFree       128815628     128815628     128815628     128815628


 *** Fundamental physical constants (SI units) ***

 *** Literature: B. J. Mohr and B. N. Taylor,
 ***             CODATA recommended values of the fundamental physical
 ***             constants: 2006, Web Version 5.1
 ***             http://physics.nist.gov/constants

 Speed of light in vacuum [m/s]                             2.99792458000000E+08
 Magnetic constant or permeability of vacuum [N/A**2]       1.25663706143592E-06
 Electric constant or permittivity of vacuum [F/m]          8.85418781762039E-12
 Planck constant (h) [J*s]                                  6.62606896000000E-34
 Planck constant (h-bar) [J*s]                              1.05457162825177E-34
 Elementary charge [C]                                      1.60217648700000E-19
 Electron mass [kg]                                         9.10938215000000E-31
 Electron g factor [ ]                                     -2.00231930436220E+00
 Proton mass [kg]                                           1.67262163700000E-27
 Fine-structure constant                                    7.29735253760000E-03
 Rydberg constant [1/m]                                     1.09737315685270E+07
 Avogadro constant [1/mol]                                  6.02214179000000E+23
 Boltzmann constant [J/K]                                   1.38065040000000E-23
 Atomic mass unit [kg]                                      1.66053878200000E-27
 Bohr radius [m]                                            5.29177208590000E-11

 *** Conversion factors ***

 [u] -> [a.u.]                                              1.82288848426455E+03
 [Angstrom] -> [Bohr] = [a.u.]                              1.88972613288564E+00
 [a.u.] = [Bohr] -> [Angstrom]                              5.29177208590000E-01
 [a.u.] -> [s]                                              2.41888432650478E-17
 [a.u.] -> [fs]                                             2.41888432650478E-02
 [a.u.] -> [J]                                              4.35974393937059E-18
 [a.u.] -> [N]                                              8.23872205491840E-08
 [a.u.] -> [K]                                              3.15774647902944E+05
 [a.u.] -> [kJ/mol]                                         2.62549961709828E+03
 [a.u.] -> [kcal/mol]                                       6.27509468713739E+02
 [a.u.] -> [Pa]                                             2.94210107994716E+13
 [a.u.] -> [bar]                                            2.94210107994716E+08
 [a.u.] -> [atm]                                            2.90362800883016E+08
 [a.u.] -> [eV]                                             2.72113838565563E+01
 [a.u.] -> [Hz]                                             6.57968392072181E+15
 [a.u.] -> [1/cm] (wave numbers)                            2.19474631370540E+05
 [a.u./Bohr**2] -> [1/cm]                                   5.14048714338585E+03
 
 MIXED_ENV| Number of created MPI groups:                                      1
 MIXED_ENV| Task to group correspondence:
  (   0 :    0)  (   1 :    0)  (   2 :    0)  (   3 :    0)
  (   4 :    0)  (   5 :    0)  (   6 :    0)  (   7 :    0)
          ----------------------------------------------------------------------
 COLVARS| COLVAR INPUT INDEX:        1
 COLVARS| ENERGY          >>> ATOMS:                                        all!
          ----------------------------------------------------------------------

 CELL_TOP| Volume [angstrom^3]:                                         2744.000
 CELL_TOP| Vector a [angstrom    14.000     0.000     0.000    |a| =      14.000
 CELL_TOP| Vector b [angstrom     0.000    14.000     0.000    |b| =      14.000
 CELL_TOP| Vector c [angstrom     0.000     0.000    14.000    |c| =      14.000
 CELL_TOP| Angle (b,c), alpha [degree]:                                   90.000
 CELL_TOP| Angle (a,c), beta  [degree]:                                   90.000
 CELL_TOP| Angle (a,b), gamma [degree]:                                   90.000
 CELL_TOP| Numerically orthorhombic:                                         YES

 CELL| Volume [angstrom^3]:                                             2744.000
 CELL| Vector a [angstrom]:      14.000     0.000     0.000    |a| =      14.000
 CELL| Vector b [angstrom]:       0.000    14.000     0.000    |b| =      14.000
 CELL| Vector c [angstrom]:       0.000     0.000    14.000    |c| =      14.000
 CELL| Angle (b,c), alpha [degree]:                                       90.000
 CELL| Angle (a,c), beta  [degree]:                                       90.000
 CELL| Angle (a,b), gamma [degree]:                                       90.000
 CELL| Numerically orthorhombic:                                             YES

 CELL_REF| Volume [angstrom^3]:                                         2744.000
 CELL_REF| Vector a [angstrom    14.000     0.000     0.000    |a| =      14.000
 CELL_REF| Vector b [angstrom     0.000    14.000     0.000    |b| =      14.000
 CELL_REF| Vector c [angstrom     0.000     0.000    14.000    |c| =      14.000
 CELL_REF| Angle (b,c), alpha [degree]:                                   90.000
 CELL_REF| Angle (a,c), beta  [degree]:                                   90.000
 CELL_REF| Angle (a,b), gamma [degree]:                                   90.000
 CELL_REF| Numerically orthorhombic:                                         YES


 MOLECULE KIND INFORMATION


 All atoms are their own molecule, skipping detailed information
 nspins, nimgs, gapw_xc           2           1 F 

 ####### CHECKS ON A and B #######
  E_A before:  -4.8227108001192143     
  E_B before:  -4.8227108001192756     
 ####### - #######
##Inside build_kohn_sham_matrix() before doing any function calls
 i). ELECTRON ONLY CALLS
 1. Electron_pw   2.9555631345035867     
 2. Electron_1c   4.8340731386564917E-002
 ########## After 1st poisson call pure hartree  (sum of above two quantities) ##########   3.0039038658901518     
 ########################
ii). NUCLEAR ONLY CALLS
 1. Nuclear_pw   8.5880769231357839     
 2. Nuclear_1c   3.4012736860041257     
iii). REGULAR CALL (ELECTRON+NUCLEAR)
 1. Hartree_pw   2.2648006066916562     
 2. Hartree_1c   2.4617114764713812     
 Regular: Before call to qs_vxc Regular_exc, exc1   0.0000000000000000        0.0000000000000000     
 Regular: After call to qs_vxc_create Regular_exc, exc1   0.0000000000000000        0.0000000000000000     
 iv). EXCHANGE ENERGY   -1.6344957367388360     
 v). POTENTIAL ENERGY FROM CORE HAMILTONIAN   -1.3427653445820500     
 vi). KINETIC ENERGY    4.7118298689937612     
 vii). SELF ENERGY   -11.283791670955125     
      
 E_NUC is   0.70555893818478488     
      
IN build_kohn_sham_matrix() CALLING qs_ks_atom(),updates single atom contributions due to gapw
Inside build_kohn_sham_matrix() after doing all function calls and evaluating energy
 CHECK ON A IS DONE, E_A after passing modified PA_hat density:  -4.8227108001192125     
##Inside build_kohn_sham_matrix() before doing any function calls
 i). ELECTRON ONLY CALLS
 1. Electron_pw   2.9555631345035711     
 2. Electron_1c   4.8340731386563363E-002
 ########## After 1st poisson call pure hartree  (sum of above two quantities) ##########   3.0039038658901345     
 ########################
ii). NUCLEAR ONLY CALLS
 1. Nuclear_pw   8.5880769231357839     
 2. Nuclear_1c   3.4012736860041257     
iii). REGULAR CALL (ELECTRON+NUCLEAR)
 1. Hartree_pw   2.2648006066916002     
 2. Hartree_1c   2.4617114764713914     
 Regular: Before call to qs_vxc Regular_exc, exc1   0.0000000000000000        0.0000000000000000     
 Regular: After call to qs_vxc_create Regular_exc, exc1   0.0000000000000000        0.0000000000000000     
 iv). EXCHANGE ENERGY   -1.6344957367388080     
 v). POTENTIAL ENERGY FROM CORE HAMILTONIAN   -1.3427653445820331     
 vi). KINETIC ENERGY    4.7118298689937035     
 vii). SELF ENERGY   -11.283791670955125     
      
 E_NUC is   0.70555893818478488     
      
IN build_kohn_sham_matrix() CALLING qs_ks_atom(),updates single atom contributions due to gapw
Inside build_kohn_sham_matrix() after doing all function calls and evaluating energy
 CHECK ON B IS DONE, E_B after passing modified PB_hat density:  -4.8227108001192711     
 DOING ANTI-SYMMETRIC PART OF VAB
##Inside build_kohn_sham_matrix() before doing any function calls
 i). ELECTRON ONLY CALLS
 1. Electron_pw   6.2480772339691084E-006
 2. Electron_1c   7.3624986671374859E-011
 ########## After 1st poisson call pure hartree  (sum of above two quantities) ##########   6.2481508589557801E-006
 ########################
ii). NUCLEAR ONLY CALLS
 1. Nuclear_pw   8.5880769231357839     
 2. Nuclear_1c   3.4012736860041257     
iii). REGULAR CALL (ELECTRON+NUCLEAR)
 1. Hartree_pw   8.5956196288046378     
 2. Hartree_1c   3.4013292286093222     
 Regular: Before call to qs_vxc Regular_exc, exc1   0.0000000000000000        0.0000000000000000     
 Regular: After call to qs_vxc_create Regular_exc, exc1   0.0000000000000000        0.0000000000000000     
 iv). EXCHANGE ENERGY   -4.1085395136835769E-002
 v). POTENTIAL ENERGY FROM CORE HAMILTONIAN    6.0732661811235128E-005
 vi). KINETIC ENERGY    3.3686590424856968E-003
 vii). SELF ENERGY   -11.283791670955125     
      
 E_NUC is   0.70555893818478488     
      
IN build_kohn_sham_matrix() CALLING qs_ks_atom(),updates single atom contributions due to gapw
Inside build_kohn_sham_matrix() after doing all function calls and evaluating energy
 DOING SYMMETRIC PART OF VAB
##Inside build_kohn_sham_matrix() before doing any function calls
 i). ELECTRON ONLY CALLS
 1. Electron_pw   6.5943838447666218E-003
 2. Electron_1c   1.0068464637829483E-004
 ########## After 1st poisson call pure hartree  (sum of above two quantities) ##########   6.6950684911449166E-003
 ########################
 ehartree, ehartree_1c after multiplying with DTPROD/DHPROD -0.13320799115128873       -2.0338518047405521E-003
 dtprod, dhprod are -0.99999999999999911        4.9504416272422837E-002
 J2_AB is  -0.13524184295602928     
ii). NUCLEAR ONLY CALLS
 1. Nuclear_pw   8.5880769231357839     
 2. Nuclear_1c   3.4012736860041257     
iii). REGULAR CALL (ELECTRON+NUCLEAR)
 1. Hartree_pw   8.1466017773103907     
 2. Hartree_1c   3.3553493925388951     
 Regular: Before call to qs_vxc Regular_exc, exc1   0.0000000000000000        0.0000000000000000     
 Regular: After call to qs_vxc_create Regular_exc, exc1   0.0000000000000000        0.0000000000000000     
 iv). EXCHANGE ENERGY   -4.4510449239176041E-002
 v). POTENTIAL ENERGY FROM CORE HAMILTONIAN   -6.2391285284434550E-002
 vi). KINETIC ENERGY   0.21425546154221631     
 vii). SELF ENERGY   -11.283791670955125     
      
 E_NUC is   0.70555893818478488     
      
IN build_kohn_sham_matrix() CALLING qs_ks_atom(),updates single atom contributions due to gapw
 ########################
 #########  ET  #########
 ------------------------
 E_NUC  0.70555893818478488     
 HAA <a|H|a>  -5.5282697383039983     
 HBB <b|H|b>  -5.5282697383040560     
             
 <a|H1|b>  0.34223033152398824     
 <a|H2|b>  -6.6055003473018445E-002
 ...<a|J2|b> -0.13524184295602928     
 ...<a|K2|b>   6.9186839483010840E-002
 HAB <a|H|b>  0.27617532805096978     
 SAB  -4.9504416272422795E-002
 VAB   2.5077072659012043E-003
  VAB in different units 
 ------------------------
          6.8238185012312963E-002 eV
          550.37812776889155      1/cm
          1.5736100541152478      kcal/mol
          6.5839844664181966      kJ/mol
          16499921175327.404      Hertz
 ------------------------
 ------------------------
 E+  -5.5256378884516337     
 E-  -5.5306533029876608     
 (E+ - E-)/2   2.5077072680131387E-003
          6.8238185069781618E-002 eV
          550.37812823240756      1/cm
          1.5736100554405066      kcal/mol
          6.5839844719630793      kJ/mol
          16499921189223.264      Hertz
 ------------------------
 ------------------------
Inside build_kohn_sham_matrix() after doing all function calls and evaluating energy
 NO FORCE_EVAL section calculated the dipole

 ENERGY| Total FORCE_EVAL ( MIXED ) energy (a.u.):             0.000000000000061


 -------------------------------------------------------------------------------
 -                                                                             -
 -                                DBCSR STATISTICS                             -
 -                                                                             -
 -------------------------------------------------------------------------------
 COUNTER                                    TOTAL       BLAS       SMM       ACC
 flops     2 x     1 x     2                   64     100.0%      0.0%      0.0%
 flops     2 x     2 x     2                 1248     100.0%      0.0%      0.0%
 flops inhomo. stacks                         624     100.0%      0.0%      0.0%
 flops total                         1.936000E+03     100.0%      0.0%      0.0%
 flops max/rank                      1.248000E+03     100.0%      0.0%      0.0%
 matmuls inhomo. stacks                        78     100.0%      0.0%      0.0%
 matmuls total                                164     100.0%      0.0%      0.0%
 number of processed stacks                   108     100.0%      0.0%      0.0%
 average stack size                                     1.5       0.0       0.0
 marketing flops                     2.560000E+03
 -------------------------------------------------------------------------------
 # multiplications                             54
 max memory usage/rank             595.271680E+06
 # max total images/rank                        2
 # max 3D layers                                1
 # MPI messages exchanged                    3888
 MPI messages size (bytes):
  total size                        15.936000E+03
  min size                           0.000000E+00
  max size                          64.000000E+00
  average size                       4.098765E+00
 MPI breakdown and total messages size (bytes):
             size <=      128                3888                    15936
       128 < size <=     8192                   0                        0
      8192 < size <=    32768                   0                        0
     32768 < size <=   131072                   0                        0
    131072 < size <=  4194304                   0                        0
   4194304 < size <= 16777216                   0                        0
  16777216 < size                               0                        0
 -------------------------------------------------------------------------------

 *** WARNING in dbcsr/mm/dbcsr_mm.F:268 :: Using a non-square number of ***
 *** MPI ranks might lead to poor performance.                          ***
 *** Used ranks: 8                                                      ***
 *** Suggested: 9 16                                                    ***

 -------------------------------------------------------------------------------

 MEMORY| Estimated peak process memory [MiB]                                 568

 -------------------------------------------------------------------------------
 -                                                                             -
 -                         MESSAGE PASSING PERFORMANCE                         -
 -                                                                             -
 -------------------------------------------------------------------------------

 ROUTINE             CALLS      AVE VOLUME [Bytes]
 MP_Group              117
 MP_Bcast              406                   8579.
 MP_Allreduce         1710                   1029.
 MP_Sync               337
 MP_Alltoall          2538                2617000.
 MP_ISendRecv         3304                 185538.
 MP_Wait              8746
 MP_comm_split          53
 MP_ISend             3572                 494155.
 MP_IRecv             3468                 508972.
 MP_Recv                 2                     32.
 MP_Memory            3224
 -------------------------------------------------------------------------------


 -------------------------------------------------------------------------------
 -                                                                             -
 -                           R E F E R E N C E S                               -
 -                                                                             -
 -------------------------------------------------------------------------------
 
 CP2K version 6.1, the CP2K developers group (2018).
 CP2K is freely available from https://www.cp2k.org/ .

 Schuett, Ole; Messmer, Peter; Hutter, Juerg; VandeVondele, Joost. 
 Electronic Structure Calculations on Graphics Processing Units, John Wiley & Sons, Ltd, 173-190 (2016). 
 GPU-Accelerated Sparse Matrix-Matrix Multiplication for Linear Scaling Density Functional Theory.
 http://dx.doi.org/10.1002/9781118670712.ch8


 Borstnik, U; VandeVondele, J; Weber, V; Hutter, J. 
 PARALLEL COMPUTING, 40 (5-6), 47-58 (2014). 
 Sparse matrix multiplication: The distributed block-compressed sparse
 row library.
 http://dx.doi.org/10.1016/j.parco.2014.03.012


 Hutter, J; Iannuzzi, M; Schiffmann, F; VandeVondele, J. 
 WILEY INTERDISCIPLINARY REVIEWS-COMPUTATIONAL MOLECULAR SCIENCE, 4 (1), 15-25 (2014). 
 CP2K: atomistic simulations of condensed matter systems.
 http://dx.doi.org/10.1002/wcms.1159


 Guidon, M; Hutter, J; VandeVondele, J. 
 JOURNAL OF CHEMICAL THEORY AND COMPUTATION, 5 (11), 3010-3021 (2009). 
 Robust Periodic Hartree-Fock Exchange for Large-Scale Simulations Using
 Gaussian Basis Sets.
 http://dx.doi.org/10.1021/ct900494g


 Guidon, M; Schiffmann, F; Hutter, J; VandeVondele, J. 
 JOURNAL OF CHEMICAL PHYSICS, 128 (21), 214104 (2008). 
 Ab initio molecular dynamics using hybrid density functionals.
 http://dx.doi.org/10.1063/1.2931945


 Frigo, M; Johnson, SG. 
 PROCEEDINGS OF THE IEEE, 93 (2), 216-231 (2005). 
 The design and implementation of FFTW3.
 http://dx.doi.org/10.1109/JPROC.2004.840301


 Lippert, G; Hutter, J; Parrinello, M. 
 THEORETICAL CHEMISTRY ACCOUNTS, 103 (2), 124-140 (1999). 
 The Gaussian and augmented-plane-wave density functional method for ab
 initio molecular dynamics simulations.
 http://dx.doi.org/10.1007/s002140050523


 Krack, M; Parrinello, M. 
 PHYSICAL CHEMISTRY CHEMICAL PHYSICS, 2 (10), 2105-2112 (2000). 
 All-electron ab-initio molecular dynamics.
 http://dx.doi.org/10.1039/b001167n


 Martyna, GJ; Tuckerman, ME. 
 JOURNAL OF CHEMICAL PHYSICS, 110 (6), 2810-2821 (1999). 
 A reciprocal space based method for treating long range interactions in
 ab initio and force-field-based calculations in clusters.
 http://dx.doi.org/10.1063/1.477923


 -------------------------------------------------------------------------------
 -                                                                             -
 -                                T I M I N G                                  -
 -                                                                             -
 -------------------------------------------------------------------------------
 SUBROUTINE                       CALLS  ASD         SELF TIME        TOTAL TIME
                                MAXIMUM       AVERAGE  MAXIMUM  AVERAGE  MAXIMUM
 CP2K                                 1  1.0    0.039    0.050   21.259   21.259
 qs_energies                          2  2.0    0.000    0.000   17.888   17.889
 scf_env_do_scf                       2  3.0    0.000    0.000   17.149   17.152
 scf_env_do_scf_inner_loop           26  4.0    0.001    0.002   17.149   17.151
 pw_transfer                        708  8.8    0.030    0.034   13.413   13.467
 fft_wrap_pw1pw2                    594  9.9    0.004    0.005   13.145   13.198
 fft_wrap_pw1pw2_140                244 10.6    0.877    0.897   11.999   12.085
 qs_ks_update_qs_env                 30  4.6    0.001    0.001   10.869   10.870
 rebuild_ks_matrix                   30  5.6    0.000    0.000   10.867   10.868
 qs_ks_build_kohn_sham_matrix        30  6.6    0.010    0.011   10.867   10.868
 fft3d_ps                           594 11.9    7.274    7.476   10.110   10.204
 qs_rho_update_rho                   32  4.6    0.000    0.000    9.047    9.047
 calculate_rho_elec                  64  5.6    0.141    0.154    9.044    9.044
 density_rs2pw                       64  6.6    0.003    0.003    8.571    8.603
 sum_up_and_integrate                26  8.0    0.000    0.000    4.262    4.266
 integrate_v_rspace                  52  9.0    0.010    0.017    4.262    4.265
 potential_pw2rs                     52 10.0    0.006    0.006    4.247    4.252
 rs_pw_transfer                     538  9.1    0.006    0.006    4.074    4.099
 prepare_gapw_den                    38  7.1    0.010    0.011    2.853    2.859
 put_rho0_on_grid                    38  8.1    0.079    0.081    2.755    2.761
 rs_pw_transfer_RS2PW_140           104  9.1    1.422    1.434    1.809    1.818
 rs_pw_transfer_PW2RS_140            86 11.0    1.180    1.207    1.757    1.768
 yz_to_x                            348 12.3    1.248    1.262    1.668    1.706
 pw_gather_p                        348 11.3    1.310    1.322    1.310    1.322
 x_to_yz                            246 13.8    0.856    0.876    1.159    1.255
 pw_poisson_solve                    38  7.1    0.435    0.438    1.069    1.071
 qs_init_subsys                       2  2.0    0.002    0.002    0.906    0.906
 qs_env_setup                         2  3.0    0.000    0.000    0.897    0.897
 qs_env_rebuild_pw_env                4  3.5    0.000    0.000    0.896    0.897
 pw_env_rebuild                       2  5.0    0.001    0.001    0.896    0.896
 pw_grid_setup                       10  6.0    0.001    0.001    0.884    0.884
 pw_grid_setup_internal              10  7.0    0.025    0.025    0.883    0.883
 mp_alltoall_z22v                   594 13.9    0.723    0.861    0.723    0.861
 fft_wrap_pw1pw2_50                 116 11.1    0.062    0.071    0.740    0.798
 pw_scatter_p                       246 12.8    0.749    0.763    0.749    0.763
 pw_grid_sort                        10  8.0    0.501    0.508    0.735    0.748
 integrate_vhg0_rspace               30  7.6    0.002    0.003    0.742    0.747
 mp_waitany                        2280 11.0    0.675    0.722    0.675    0.722
 rs_grid_zero                       412  8.1    0.693    0.696    0.693    0.696
 init_scf_run                         2  3.0    0.000    0.000    0.586    0.586
 scf_env_initial_rho_setup            2  4.0    0.000    0.000    0.583    0.583
 pw_copy                            388 10.0    0.460    0.468    0.460    0.468
 pw_poisson_rebuild                  38  8.1    0.005    0.006    0.424    0.428
 -------------------------------------------------------------------------------

 The number of warnings for this run is : 1
 
 -------------------------------------------------------------------------------
  **** **** ******  **  PROGRAM ENDED AT                 2019-07-25 10:49:42.361
 ***** ** ***  *** **   PROGRAM RAN ON            cpn-p28-36.cbls.ccr.buffalo.ed
 **    ****   ******    PROGRAM RAN BY                                  pavankum
 ***** **    ** ** **   PROGRAM PROCESS ID                                 74471
  **** **  *******  **  PROGRAM STOPPED IN /projects/academic/mdupuis2/pavan/VAB
                                           _calculation/results_for_paper/1.He2+
                                           /r_3
