      77
 i =      300, E =     -1335.6825781521
 Fe        18.3391627039        0.0005341037        0.0000357158
 Fe        15.2922640074       -0.0001195896        0.0002037127
 Fe        12.2246975189        0.0046274034        0.0064268833
 Fe         9.1385634131        0.0001827997        0.0013281829
 Fe         6.0918072737        0.0000861193        0.0000256929
 Fe         3.0466298554        0.0002259423       -0.0014933196
 Fe        -0.0003625671       -0.0002667502       -0.0007660838
  O        18.3700927114        0.1084498874        2.0465774216
  O        18.2446574281       -0.0342400108       -2.1103289797
  O        19.8550485544       -1.1937641003       -0.0243028870
  O        19.8351356739        1.1976724184       -0.0332160047
  O        15.3470648696        0.0304222464        2.1146151963
  O        15.2708367131       -0.0954286471       -2.0369129384
  O        16.8330436352       -1.1952260250        0.0824927749
  O        16.7983942537        1.1941382448       -0.0496892184
  O        12.2148166387       -0.0362407038        2.0686423827
  O        12.1449193248        0.0439884996       -2.0258341547
  O        13.7774746294       -1.1949269445        0.0361360516
  O        13.7734904617        1.1906807523        0.0171005517
  O         9.2362190266       -0.0308951018        2.1248553004
  O         9.3501196650        0.0344837485       -2.1856364071
  O        10.7148926049       -1.1885941872       -0.0410129192
  O        10.7146212354        1.1957117343        0.0608852581
  O         6.0650202663        0.0267452594        2.1714472829
  O         6.1357005894        0.0305985144       -2.1655731402
  O         7.7495357173       -1.2348225115       -0.0407328682
  O         7.7522476069        1.2424453611        0.0222408749
  O         2.8125034979       -0.0328671974        2.2381821485
  O         3.0039356575        0.0372266473       -2.1112742539
  O         4.4363170400       -1.2333080856        0.0312254706
  O         4.4302917389        1.2426729815        0.0429193037
  O         0.0964879490       -0.0452045380        2.0083171601
  O        -0.0439910516        0.0277171280       -2.1010443037
  O         1.5102508221       -1.1968641924       -0.0455168960
  O         1.4883316102        1.1955014156        0.0255193521
  H        18.2856427145       -0.8902525333       -2.6173753962
  H        18.7302515027        0.6676860439       -2.6211781223
  H        17.6273451176       -0.2973863219        2.5650951145
  H        18.8048622145        0.8313001400        2.5712427178
  H        19.8606658754       -2.1769638645        0.0733910087
  H        19.8582329032        2.1839817332        0.0254955386
  H        14.7290908962       -0.7140394449       -2.5918685757
  H        15.9955003048        0.3291542654       -2.5662689738
  H        15.0653820711       -0.7546335157        2.6557690838
  H        15.1237223207        0.8648624694        2.6108725476
  H        16.8290696273       -2.1836140697        0.0781745697
  H        16.7984614356        2.1822596365       -0.0643028473
  H        11.2204600005       -0.1474899447       -2.3711670561
  H        12.6521049045        0.6229458819       -2.6492631254
  H        12.3550564744       -0.8486658186        2.6208481596
  H        11.5853420279        0.5757720220        2.5327960994
  H        13.7541969927       -2.1781185615       -0.0653549962
  H        13.7635863356        2.1783893072       -0.0106924416
  H         8.8540930135       -0.6980284118       -2.6460236173
  H         9.1388962545        0.8932482040       -2.6481503254
  H         9.1615141772       -0.8765886459        2.6410963596
  H         8.8420990210        0.7176648941        2.6436000198
  H        10.7018966029       -2.1732453491       -0.1156264246
  H        10.7003006718        2.1831242915        0.0481740543
  H         6.0000917326       -0.7655694792       -2.7419778484
  H         6.0890281732        0.8565308648       -2.7130341421
  H         6.1115458848       -0.7771340166        2.7514848459
  H         6.1068076764        0.8491494196        2.7243436789
  H         7.7324379548       -2.2208680062       -0.0438786263
  H         7.7359185149        2.2284348389        0.0197849360
  H         3.1429410511       -0.7683661811       -2.6725987522
  H         3.1694005654        0.8604302764       -2.6390291662
  H         3.0847582759       -0.8832148973        2.6843021996
  H         3.2462799643        0.7275548260        2.7153657630
  H         4.4565755903       -2.2191730160        0.0302228359
  H         4.4486768869        2.2284280532        0.0560133609
  H         0.1431041785       -0.7955183272       -2.6247797417
  H         0.2227438184        0.8242121705       -2.6307734234
  H        -0.4995186429       -0.4884152349        2.6610566636
  H         1.0385453561        0.0612083658        2.3546597804
  H         1.5229056122       -2.1833152158       -0.0143914298
  H         1.5029570012        2.1784532221        0.1162468090
