 DBCSR| Multiplication driver                                               BLAS
 DBCSR| Multrec recursion limit                                              512
 DBCSR| Multiplication stack size                                           1000
 DBCSR| Maximum elements for images                                    UNLIMITED
 DBCSR| Multiplicative factor virtual images                                   1
 DBCSR| Multiplication size stacks                                             3
 DBCSR| Number of 3D layers                                               SINGLE
 DBCSR| Use MPI memory allocation                                              T
 DBCSR| Use RMA algorithm                                                      F
 DBCSR| Use Communication thread                                               T
 DBCSR| Communication thread load                                             87


  **** **** ******  **  PROGRAM STARTED AT               2019-07-25 13:12:17.951
 ***** ** ***  *** **   PROGRAM STARTED ON        cpn-p28-37.cbls.ccr.buffalo.ed
 **    ****   ******    PROGRAM STARTED BY                              pavankum
 ***** **    ** ** **   PROGRAM PROCESS ID                                 95837
  **** **  *******  **  PROGRAM STARTED IN /projects/academic/mdupuis2/pavan/VAB
                                           _calculation/results_for_paper/2.Zn2+
                                           /gapw_all_elec/r_4

 CP2K| version string:                                          CP2K version 6.1
 CP2K| source code revision number:                                    svn:18464
 CP2K| cp2kflags: libint fftw3 libxc parallel mpi3 scalapack libderiv_max_am1=5 
 CP2K|            libint_max_am=6
 CP2K| is freely available from                            https://www.cp2k.org/
 CP2K| Program compiled at                          Fri Nov 30 14:17:09 EST 2018
 CP2K| Program compiled on                       srv-p22-12.cbls.ccr.buffalo.edu
 CP2K| Program compiled for                                                local
 CP2K| Data directory path    /projects/academic/mdupuis2/pavan/cp2k/cp2k-6.1/da
 CP2K| Input file name                                                 input.inp

 GLOBAL| Force Environment number                                              3
 GLOBAL| Basis set file name                                           BASIS_SET
 GLOBAL| Potential file name                                           POTENTIAL
 GLOBAL| MM Potential file name                                     MM_POTENTIAL
 GLOBAL| Coordinate file name                                     ./geometry.xyz
 GLOBAL| Force Environment number                                              1
 GLOBAL| Basis set file name            /projects/academic/mdupuis2/pavan/cp2k/c
 GLOBAL| Potential file name            /projects/academic/mdupuis2/pavan/cp2k/c
 GLOBAL| MM Potential file name                                     MM_POTENTIAL
 GLOBAL| Coordinate file name                                       ./state0.xyz
 GLOBAL| Force Environment number                                              2
 GLOBAL| Basis set file name            /projects/academic/mdupuis2/pavan/cp2k/c
 GLOBAL| Potential file name            /projects/academic/mdupuis2/pavan/cp2k/c
 GLOBAL| MM Potential file name                                     MM_POTENTIAL
 GLOBAL| Coordinate file name                                       ./state1.xyz
 GLOBAL| Method name                                                        CP2K
 GLOBAL| Project name                                                      p_zn_
 GLOBAL| Preferred FFT library                                             FFTW3
 GLOBAL| Preferred diagonalization lib.                                       SL
 GLOBAL| Run type                                                         ENERGY
 GLOBAL| All-to-all communication in single precision                          F
 GLOBAL| FFTs using library dependent lengths                                  T
 GLOBAL| Global print level                                               MEDIUM
 GLOBAL| Total number of message passing processes                            16
 GLOBAL| Number of threads for this process                                    1
 GLOBAL| This output is from process                                           0
 GLOBAL| CPU model name :  Intel(R) Xeon(R) CPU E5-2650 v3 @ 2.30GHz

 MEMORY| system memory details [Kb]
 MEMORY|                        rank 0           min           max       average
 MEMORY| MemTotal            131740876     131740876     131740876     131740876
 MEMORY| MemFree             126825852     126825852     126825852     126825852
 MEMORY| Buffers                349836        349836        349836        349836
 MEMORY| Cached                1228580       1228580       1228580       1228580
 MEMORY| Slab                   330332        330332        330332        330332
 MEMORY| SReclaimable           164256        164256        164256        164256
 MEMORY| MemLikelyFree       128568524     128568524     128568524     128568524


 *** Fundamental physical constants (SI units) ***

 *** Literature: B. J. Mohr and B. N. Taylor,
 ***             CODATA recommended values of the fundamental physical
 ***             constants: 2006, Web Version 5.1
 ***             http://physics.nist.gov/constants

 Speed of light in vacuum [m/s]                             2.99792458000000E+08
 Magnetic constant or permeability of vacuum [N/A**2]       1.25663706143592E-06
 Electric constant or permittivity of vacuum [F/m]          8.85418781762039E-12
 Planck constant (h) [J*s]                                  6.62606896000000E-34
 Planck constant (h-bar) [J*s]                              1.05457162825177E-34
 Elementary charge [C]                                      1.60217648700000E-19
 Electron mass [kg]                                         9.10938215000000E-31
 Electron g factor [ ]                                     -2.00231930436220E+00
 Proton mass [kg]                                           1.67262163700000E-27
 Fine-structure constant                                    7.29735253760000E-03
 Rydberg constant [1/m]                                     1.09737315685270E+07
 Avogadro constant [1/mol]                                  6.02214179000000E+23
 Boltzmann constant [J/K]                                   1.38065040000000E-23
 Atomic mass unit [kg]                                      1.66053878200000E-27
 Bohr radius [m]                                            5.29177208590000E-11

 *** Conversion factors ***

 [u] -> [a.u.]                                              1.82288848426455E+03
 [Angstrom] -> [Bohr] = [a.u.]                              1.88972613288564E+00
 [a.u.] = [Bohr] -> [Angstrom]                              5.29177208590000E-01
 [a.u.] -> [s]                                              2.41888432650478E-17
 [a.u.] -> [fs]                                             2.41888432650478E-02
 [a.u.] -> [J]                                              4.35974393937059E-18
 [a.u.] -> [N]                                              8.23872205491840E-08
 [a.u.] -> [K]                                              3.15774647902944E+05
 [a.u.] -> [kJ/mol]                                         2.62549961709828E+03
 [a.u.] -> [kcal/mol]                                       6.27509468713739E+02
 [a.u.] -> [Pa]                                             2.94210107994716E+13
 [a.u.] -> [bar]                                            2.94210107994716E+08
 [a.u.] -> [atm]                                            2.90362800883016E+08
 [a.u.] -> [eV]                                             2.72113838565563E+01
 [a.u.] -> [Hz]                                             6.57968392072181E+15
 [a.u.] -> [1/cm] (wave numbers)                            2.19474631370540E+05
 [a.u./Bohr**2] -> [1/cm]                                   5.14048714338585E+03
 
 MIXED_ENV| Number of created MPI groups:                                      1
 MIXED_ENV| Task to group correspondence:
  (   0 :    0)  (   1 :    0)  (   2 :    0)  (   3 :    0)
  (   4 :    0)  (   5 :    0)  (   6 :    0)  (   7 :    0)
  (   8 :    0)  (   9 :    0)  (  10 :    0)  (  11 :    0)
  (  12 :    0)  (  13 :    0)  (  14 :    0)  (  15 :    0)
          ----------------------------------------------------------------------
 COLVARS| COLVAR INPUT INDEX:        1
 COLVARS| ENERGY          >>> ATOMS:                                        all!
          ----------------------------------------------------------------------

 CELL_TOP| Volume [angstrom^3]:                                         8000.000
 CELL_TOP| Vector a [angstrom    20.000     0.000     0.000    |a| =      20.000
 CELL_TOP| Vector b [angstrom     0.000    20.000     0.000    |b| =      20.000
 CELL_TOP| Vector c [angstrom     0.000     0.000    20.000    |c| =      20.000
 CELL_TOP| Angle (b,c), alpha [degree]:                                   90.000
 CELL_TOP| Angle (a,c), beta  [degree]:                                   90.000
 CELL_TOP| Angle (a,b), gamma [degree]:                                   90.000
 CELL_TOP| Numerically orthorhombic:                                         YES

 GENERATE|  Preliminary Number of Bonds generated:                             0
 GENERATE|  Achieved consistency in connectivity generation.

 CELL| Volume [angstrom^3]:                                             8000.000
 CELL| Vector a [angstrom]:      20.000     0.000     0.000    |a| =      20.000
 CELL| Vector b [angstrom]:       0.000    20.000     0.000    |b| =      20.000
 CELL| Vector c [angstrom]:       0.000     0.000    20.000    |c| =      20.000
 CELL| Angle (b,c), alpha [degree]:                                       90.000
 CELL| Angle (a,c), beta  [degree]:                                       90.000
 CELL| Angle (a,b), gamma [degree]:                                       90.000
 CELL| Numerically orthorhombic:                                             YES

 CELL_REF| Volume [angstrom^3]:                                         8000.000
 CELL_REF| Vector a [angstrom    20.000     0.000     0.000    |a| =      20.000
 CELL_REF| Vector b [angstrom     0.000    20.000     0.000    |b| =      20.000
 CELL_REF| Vector c [angstrom     0.000     0.000    20.000    |c| =      20.000
 CELL_REF| Angle (b,c), alpha [degree]:                                   90.000
 CELL_REF| Angle (a,c), beta  [degree]:                                   90.000
 CELL_REF| Angle (a,b), gamma [degree]:                                   90.000
 CELL_REF| Numerically orthorhombic:                                         YES


 MOLECULE KIND INFORMATION


 All atoms are their own molecule, skipping detailed information

 *** WARNING in force_env_methods.F:1097 :: ASSERTION (cond) failed at   ***
 *** line   1098 Error (0.185707E-11) in computing numerical derivatives ***
 *** larger then(0.100000E-11) .                                         ***


 *** WARNING in force_env_methods.F:1097 :: ASSERTION (cond) failed at   ***
 *** line   1098 Error (0.185707E-11) in computing numerical derivatives ***
 *** larger then(0.100000E-11) .                                         ***

 nspins, nimgs, gapw_xc           2           1 F 

 ####### CHECKS ON A and B #######
  E_A before:  -3554.5617605370908     
  E_B before:  -3554.5617605370926     
 ####### - #######
##Inside build_kohn_sham_matrix() before doing any function calls
 i). ELECTRON ONLY CALLS
 1. Electron_pw   1267.1649807286999     
 2. Electron_1c   391.69564503485753     
 ########## After 1st poisson call pure hartree  (sum of above two quantities) ##########   1658.8606257635574     
 ########################
ii). NUCLEAR ONLY CALLS
 1. Nuclear_pw   1949.8578839770801     
 2. Nuclear_1c  -337.35001003422531     
iii). REGULAR CALL (ELECTRON+NUCLEAR)
 1. Hartree_pw   135.77963954470869     
 2. Hartree_1c   75.113260762815713     
 Regular: Before call to qs_vxc Regular_exc, exc1   0.0000000000000000        0.0000000000000000     
 Regular: After call to qs_vxc_create Regular_exc, exc1   0.0000000000000000        0.0000000000000000     
 iv). EXCHANGE ENERGY   -139.01552764922604     
 v). POTENTIAL ENERGY FROM CORE HAMILTONIAN   -5687.3070146912296     
 vi). KINETIC ENERGY    3554.3108967693115     
 vii). SELF ENERGY   -1493.4430152734726     
      
 E_NUC is    119.06485866938215     
      
IN build_kohn_sham_matrix() CALLING qs_ks_atom(),updates single atom contributions due to gapw
Inside build_kohn_sham_matrix() after doing all function calls and evaluating energy
 CHECK ON A IS DONE, E_A after passing modified PA_hat density:  -3554.5617605370926     
##Inside build_kohn_sham_matrix() before doing any function calls
 i). ELECTRON ONLY CALLS
 1. Electron_pw   1267.1649807286999     
 2. Electron_1c   391.69564503485759     
 ########## After 1st poisson call pure hartree  (sum of above two quantities) ##########   1658.8606257635574     
 ########################
ii). NUCLEAR ONLY CALLS
 1. Nuclear_pw   1949.8578839770801     
 2. Nuclear_1c  -337.35001003422531     
iii). REGULAR CALL (ELECTRON+NUCLEAR)
 1. Hartree_pw   135.77963954470860     
 2. Hartree_1c   75.113260762815727     
 Regular: Before call to qs_vxc Regular_exc, exc1   0.0000000000000000        0.0000000000000000     
 Regular: After call to qs_vxc_create Regular_exc, exc1   0.0000000000000000        0.0000000000000000     
 iv). EXCHANGE ENERGY   -139.01552764922610     
 v). POTENTIAL ENERGY FROM CORE HAMILTONIAN   -5687.3070146912287     
 vi). KINETIC ENERGY    3554.3108967693111     
 vii). SELF ENERGY   -1493.4430152734726     
      
 E_NUC is    119.06485866938215     
      
IN build_kohn_sham_matrix() CALLING qs_ks_atom(),updates single atom contributions due to gapw
Inside build_kohn_sham_matrix() after doing all function calls and evaluating energy
 CHECK ON B IS DONE, E_B after passing modified PB_hat density:  -3554.5617605370926     
 DOING ANTI-SYMMETRIC PART OF VAB
##Inside build_kohn_sham_matrix() before doing any function calls
 i). ELECTRON ONLY CALLS
 1. Electron_pw   9.7619606252923724E-016
 2. Electron_1c  -4.1325978658082674E-021
 ########## After 1st poisson call pure hartree  (sum of above two quantities) ##########   9.7619192993137151E-016
 ########################
ii). NUCLEAR ONLY CALLS
 1. Nuclear_pw   1949.8578839770801     
 2. Nuclear_1c  -337.35001003422531     
iii). REGULAR CALL (ELECTRON+NUCLEAR)
 1. Hartree_pw   1949.8578828309849     
 2. Hartree_1c  -337.35001003665803     
 Regular: Before call to qs_vxc Regular_exc, exc1   0.0000000000000000        0.0000000000000000     
 Regular: After call to qs_vxc_create Regular_exc, exc1   0.0000000000000000        0.0000000000000000     
 iv). EXCHANGE ENERGY   -1.9302401456903434E-014
 v). POTENTIAL ENERGY FROM CORE HAMILTONIAN    7.5246669314179733E-010
 vi). KINETIC ENERGY   -4.5750471671908792E-009
 vii). SELF ENERGY   -1493.4430152734726     
      
 E_NUC is    119.06485866938215     
      
IN build_kohn_sham_matrix() CALLING qs_ks_atom(),updates single atom contributions due to gapw
Inside build_kohn_sham_matrix() after doing all function calls and evaluating energy
 DOING SYMMETRIC PART OF VAB
##Inside build_kohn_sham_matrix() before doing any function calls
 i). ELECTRON ONLY CALLS
 1. Electron_pw   1267.1649807282224     
 2. Electron_1c   391.69564503471076     
 ########## After 1st poisson call pure hartree  (sum of above two quantities) ##########   1658.8606257629331     
 ########################
 ehartree, ehartree_1c after multiplying with DTPROD/DHPROD   1267.1649807284759        391.69564503478921     
 dtprod, dhprod are   1.0000000000000115       0.99999999999981137     
 J2_AB is    1658.8606257632650     
ii). NUCLEAR ONLY CALLS
 1. Nuclear_pw   1949.8578839770801     
 2. Nuclear_1c  -337.35001003422531     
iii). REGULAR CALL (ELECTRON+NUCLEAR)
 1. Hartree_pw   135.77963954481163     
 2. Hartree_1c   75.113260762664112     
 Regular: Before call to qs_vxc Regular_exc, exc1   0.0000000000000000        0.0000000000000000     
 Regular: After call to qs_vxc_create Regular_exc, exc1   0.0000000000000000        0.0000000000000000     
 iv). EXCHANGE ENERGY   -139.01552764917366     
 v). POTENTIAL ENERGY FROM CORE HAMILTONIAN   -5687.3070146901573     
 vi). KINETIC ENERGY    3554.3108967686403     
 vii). SELF ENERGY   -1493.4430152734726     
      
 E_NUC is    119.06485866938215     
      
IN build_kohn_sham_matrix() CALLING qs_ks_atom(),updates single atom contributions due to gapw
 ########################
 #########  ET  #########
 ------------------------
 E_NUC   119.06485866938215     
 HAA <a|H|a>  -3673.6266192064732     
 HBB <b|H|b>  -3673.6266192064741     
             
 <a|H1|b>  -5193.4717173198878     
 <a|H2|b>   1519.8450981140636     
 ...<a|J2|b>   1658.8606257632650     
 ...<a|K2|b>  -139.01552764920146     
 HAB <a|H|b>  -3673.6266192058242     
 SAB  0.99999999999982292     
 VAB                       NaN
  VAB in different units 
 ------------------------
                              NaN eV
                              NaN 1/cm
                              NaN kcal/mol
                              NaN kJ/mol
                              NaN Hertz
 ------------------------
 ------------------------
 E+  -3586.8816773175868     
 E-  -3755.1020217419746     
 (E+ - E-)/2   84.110172212194186     
          2288.7541823070710      eV
          18460049.040783957      1/cm
          52779.929478295067      kcal/mol
          220831.22493718658      kJ/mol
          5.5341834767371642E+017 Hertz
 ------------------------
 ------------------------
Inside build_kohn_sham_matrix() after doing all function calls and evaluating energy
 NO FORCE_EVAL section calculated the dipole

 ENERGY| Total FORCE_EVAL ( MIXED ) energy (a.u.):             0.000000000001819


 -------------------------------------------------------------------------------
 -                                                                             -
 -                                DBCSR STATISTICS                             -
 -                                                                             -
 -------------------------------------------------------------------------------
 COUNTER                                    TOTAL       BLAS       SMM       ACC
 flops    24 x    29 x    24               267264     100.0%      0.0%      0.0%
 flops    24 x    24 x    29              6013440     100.0%      0.0%      0.0%
 flops    24 x    24 x    30              6220800     100.0%      0.0%      0.0%
 flops inhomo. stacks                           0       0.0%      0.0%      0.0%
 flops total                        12.501504E+06     100.0%      0.0%      0.0%
 flops max/rank                      4.211712E+06     100.0%      0.0%      0.0%
 matmuls inhomo. stacks                         0       0.0%      0.0%      0.0%
 matmuls total                                368     100.0%      0.0%      0.0%
 number of processed stacks                   368     100.0%      0.0%      0.0%
 average stack size                                     1.0       0.0       0.0
 marketing flops                    16.579584E+06
 -------------------------------------------------------------------------------
 # multiplications                            122
 max memory usage/rank             691.376128E+06
 # max total images/rank                        1
 # max 3D layers                                1
 # MPI messages exchanged                   11712
 MPI messages size (bytes):
  total size                         8.333568E+06
  min size                           0.000000E+00
  max size                           5.760000E+03
  average size                     711.540955E+00
 MPI breakdown and total messages size (bytes):
             size <=      128               10236                        0
       128 < size <=     8192                1476                  8333568
      8192 < size <=    32768                   0                        0
     32768 < size <=   131072                   0                        0
    131072 < size <=  4194304                   0                        0
   4194304 < size <= 16777216                   0                        0
  16777216 < size                               0                        0
 -------------------------------------------------------------------------------

 MEMORY| Estimated peak process memory [MiB]                                 661

 -------------------------------------------------------------------------------
 -                                                                             -
 -                         MESSAGE PASSING PERFORMANCE                         -
 -                                                                             -
 -------------------------------------------------------------------------------

 ROUTINE             CALLS      AVE VOLUME [Bytes]
 MP_Group              251
 MP_Bcast              873                 753308.
 MP_Allreduce         3558                  43095.
 MP_Sync               711
 MP_Alltoall          6034                5173171.
 MP_ISendRecv        11460                  78865.
 MP_Wait             32174
 MP_comm_split         121
 MP_ISend            14872                 519436.
 MP_IRecv            14872                 519229.
 MP_Recv                24                   3072.
 MP_Memory            4872
 -------------------------------------------------------------------------------


 -------------------------------------------------------------------------------
 -                                                                             -
 -                           R E F E R E N C E S                               -
 -                                                                             -
 -------------------------------------------------------------------------------
 
 CP2K version 6.1, the CP2K developers group (2018).
 CP2K is freely available from https://www.cp2k.org/ .

 Schuett, Ole; Messmer, Peter; Hutter, Juerg; VandeVondele, Joost. 
 Electronic Structure Calculations on Graphics Processing Units, John Wiley & Sons, Ltd, 173-190 (2016). 
 GPU-Accelerated Sparse Matrix-Matrix Multiplication for Linear Scaling Density Functional Theory.
 http://dx.doi.org/10.1002/9781118670712.ch8


 Borstnik, U; VandeVondele, J; Weber, V; Hutter, J. 
 PARALLEL COMPUTING, 40 (5-6), 47-58 (2014). 
 Sparse matrix multiplication: The distributed block-compressed sparse
 row library.
 http://dx.doi.org/10.1016/j.parco.2014.03.012


 Hutter, J; Iannuzzi, M; Schiffmann, F; VandeVondele, J. 
 WILEY INTERDISCIPLINARY REVIEWS-COMPUTATIONAL MOLECULAR SCIENCE, 4 (1), 15-25 (2014). 
 CP2K: atomistic simulations of condensed matter systems.
 http://dx.doi.org/10.1002/wcms.1159


 Guidon, M; Hutter, J; VandeVondele, J. 
 JOURNAL OF CHEMICAL THEORY AND COMPUTATION, 5 (11), 3010-3021 (2009). 
 Robust Periodic Hartree-Fock Exchange for Large-Scale Simulations Using
 Gaussian Basis Sets.
 http://dx.doi.org/10.1021/ct900494g


 Guidon, M; Schiffmann, F; Hutter, J; VandeVondele, J. 
 JOURNAL OF CHEMICAL PHYSICS, 128 (21), 214104 (2008). 
 Ab initio molecular dynamics using hybrid density functionals.
 http://dx.doi.org/10.1063/1.2931945


 Genovese, L; Deutsch, T; Goedecker, S. 
 JOURNAL OF CHEMICAL PHYSICS, 127 (5), 054704 (2007). 
 Efficient and accurate three-dimensional Poisson solver for surface
 problems.
 http://dx.doi.org/10.1063/1.2754685


 Genovese, L; Deutsch, T; Neelov, A; Goedecker, S; Beylkin, G. 
 JOURNAL OF CHEMICAL PHYSICS, 125 (7), 074105 (2006). 
 Efficient solution of Poisson's equation with free boundary conditions.
 http://dx.doi.org/10.1063/1.2335442


 Frigo, M; Johnson, SG. 
 PROCEEDINGS OF THE IEEE, 93 (2), 216-231 (2005). 
 The design and implementation of FFTW3.
 http://dx.doi.org/10.1109/JPROC.2004.840301


 Lippert, G; Hutter, J; Parrinello, M. 
 THEORETICAL CHEMISTRY ACCOUNTS, 103 (2), 124-140 (1999). 
 The Gaussian and augmented-plane-wave density functional method for ab
 initio molecular dynamics simulations.
 http://dx.doi.org/10.1007/s002140050523


 Krack, M; Parrinello, M. 
 PHYSICAL CHEMISTRY CHEMICAL PHYSICS, 2 (10), 2105-2112 (2000). 
 All-electron ab-initio molecular dynamics.
 http://dx.doi.org/10.1039/b001167n


 -------------------------------------------------------------------------------
 -                                                                             -
 -                                T I M I N G                                  -
 -                                                                             -
 -------------------------------------------------------------------------------
 SUBROUTINE                       CALLS  ASD         SELF TIME        TOTAL TIME
                                MAXIMUM       AVERAGE  MAXIMUM  AVERAGE  MAXIMUM
 CP2K                                 1  1.0    0.048    0.059  342.758  342.759
 qs_energies                          2  2.0    0.000    0.000  308.480  308.481
 scf_env_do_scf                       2  3.0    0.000    0.000  306.978  306.981
 scf_env_do_scf_inner_loop           60  4.0    0.002    0.005  306.978  306.981
 qs_ks_update_qs_env                 64  4.8    0.002    0.002  303.498  303.507
 rebuild_ks_matrix                   64  5.8    0.000    0.000  303.493  303.502
 qs_ks_build_kohn_sham_matrix        64  6.8    0.017    0.020  303.493  303.502
 prepare_gapw_den                    72  7.5    0.010    0.011  204.037  204.334
 calculate_rho_atom                 136  8.6   43.022  193.223   43.023  193.241
 mp_sum_dv                          149  8.4  149.785  160.411  149.785  160.411
 pw_transfer                       1488  9.1    0.067    0.075   64.997   66.895
 fft_wrap_pw1pw2                   1416 10.1    0.011    0.012   64.792   66.665
 fft_wrap_pw1pw2_140                660 10.7    3.676    4.449   60.559   63.393
 fft3d_ps                          1416 12.1   33.899   36.623   51.962   52.719
 qs_rho_update_rho                   66  4.8    0.001    0.001   37.415   37.415
 calculate_rho_elec                 132  5.8    0.511    0.899   37.321   37.322
 density_rs2pw                      132  6.8    0.007    0.008   34.912   35.646
 pw_poisson_solve                    72  7.5    1.042    1.185   32.054   32.064
 mp_sum_d                          1721  6.4   18.578   22.722   18.578   22.722
 rs_pw_transfer                    1150  9.3    0.015    0.018   20.462   20.937
 sum_up_and_integrate                60  8.0    0.001    0.001   20.048   20.210
 integrate_v_rspace                 120  9.0    0.125    0.458   20.048   20.209
 potential_pw2rs                    120 10.0    0.019    0.021   19.899   19.968
 Vh_1c_gg_integrals                  72  7.5    1.573   18.214   18.586   19.375
 hfx_ks_matrix                       64  7.8    0.001    0.001   17.592   17.594
 integrate_four_center               64  8.8    0.023    0.025   17.590   17.591
 mp_alltoall_z22v                  1416 14.1    7.946   15.363    7.946   15.363
 ps_wavelet_solve                    72  8.5   12.089   12.966   13.949   14.034
 yz_to_x                            792 12.5    5.233    7.044   10.274   13.137
 put_rho0_on_grid                    72  8.5    0.207    0.219   10.140   10.437
 mp_waitany                       12920 11.3    5.240    9.909    5.240    9.909
 rs_pw_transfer_RS2PW_140           206  9.4    5.381    6.502    8.422    9.202
 rs_pw_transfer_PW2RS_140           188 11.2    5.052    6.047    8.050    8.776
 powell_optimize                2309856 11.0    8.398    8.685    8.398    8.685
 x_to_yz                            624 13.8    4.862    6.050    7.767    8.348
 calc_pair_dist_radii                 2 10.0    3.814    3.918    7.903    8.143
 calc_screening_functions             2 10.0    2.792    2.906    7.101    7.365
 -------------------------------------------------------------------------------

 The number of warnings for this run is : 4
 
 -------------------------------------------------------------------------------
  **** **** ******  **  PROGRAM ENDED AT                 2019-07-25 13:18:00.931
 ***** ** ***  *** **   PROGRAM RAN ON            cpn-p28-37.cbls.ccr.buffalo.ed
 **    ****   ******    PROGRAM RAN BY                                  pavankum
 ***** **    ** ** **   PROGRAM PROCESS ID                                 95837
  **** **  *******  **  PROGRAM STOPPED IN /projects/academic/mdupuis2/pavan/VAB
                                           _calculation/results_for_paper/2.Zn2+
                                           /gapw_all_elec/r_4
