      77
 i =        3, E =     -1335.5401233672
 Fe        18.3399592805       -0.0000942764       -0.0004631257
 Fe        15.2925608028        0.0000130300        0.0000636790
 Fe        12.2173418025       -0.0001782289        0.0010819649
 Fe         9.1379020420        0.0004964031        0.0000243988
 Fe         6.1236149036        0.0301347119        0.0011739410
 Fe         3.1099073992        0.0003904683       -0.0003964356
 Fe         0.0263992172       -0.0020883730       -0.0206605154
  O        18.3187781789        0.0306133628        2.1087264197
  O        18.3149267469       -0.0308791920       -2.1091938710
  O        19.8585657844       -1.2500229065        0.0202236614
  O        19.8587183447        1.2465322117       -0.0305981922
  O        15.2752055008        0.0320691391        2.1091191330
  O        15.2738785475       -0.0320206968       -2.1087473174
  O        16.8148501320       -1.2531160402        0.0252430292
  O        16.8149592499        1.2531021343       -0.0244405099
  O        12.2331364325        0.0292232404        2.1219655602
  O        12.2333737209       -0.0291394300       -2.1190533661
  O        13.7707522134       -1.2480126079        0.0279804961
  O        13.7709763049        1.2477203794       -0.0270365876
  O         9.2341887181       -0.0302344097        2.1667143860
  O         9.2344988644        0.0298398187       -2.1661822628
  O        10.7305130171       -1.2504147056       -0.0182471521
  O        10.7337371148        1.2496465137        0.0207379612
  O         6.1254482102        0.0295355755        2.2276920524
  O         6.1261620006        0.0383362284       -2.2252713513
  O         7.7492177626       -1.2790842003       -0.0261981827
  O         7.7790645604        1.3194170773        0.0280630777
  O         3.0087906617       -0.0280857294        2.1628661839
  O         3.0136755276        0.0264393287       -2.1669734511
  O         4.4981925365       -1.2790056714       -0.0256290714
  O         4.4655741983        1.3198266923        0.0287346710
  O        -0.0233547665        0.0282992168        2.1091997052
  O        -0.0309217843       -0.0296215358       -2.1558333669
  O         1.5136613211       -1.2489737720       -0.0229589238
  O         1.5090282791        1.2463760026       -0.0258538517
  H        18.3982756474       -0.8468570056       -2.6659418478
  H        18.3862401846        0.7790128324       -2.6765052242
  H        18.3796927412       -0.7795531182        2.6768408699
  H        18.3943839101        0.8467245241        2.6664096928
  H        19.8667443707       -2.2386157229        0.0212966982
  H        19.8695936037        2.2350511369       -0.0319968260
  H        15.1854062495       -0.8488807663       -2.6634152200
  H        15.1871328518        0.7771338176       -2.6748775694
  H        15.1850566486       -0.7769548762        2.6749526748
  H        15.1800300520        0.8489872822        2.6626966748
  H        16.8137930674       -2.2416906759        0.0275346983
  H        16.8140224483        2.2416815314       -0.0281037190
  H        11.9951562384       -0.8403895719       -2.6380897408
  H        12.0590300769        0.7794985056       -2.6668195558
  H        12.0623570587       -0.7797384423        2.6704328570
  H        11.9864838385        0.8394285047        2.6388495668
  H        13.7596955745       -2.2365507926        0.0262453883
  H        13.7593226953        2.2362531492       -0.0253562166
  H         9.0079943187       -0.7769911995       -2.6970508166
  H         9.0187012933        0.8481075406       -2.6839115348
  H         9.0295312511       -0.8480919903        2.6897358543
  H         8.9958040257        0.7768195988        2.6918920869
  H        10.7028996945       -2.2379331037       -0.0115176698
  H        10.7042996373        2.2369684052        0.0132333385
  H         6.1147736112       -0.7800052159       -2.7848068168
  H         6.1112258728        0.8474912652       -2.7982791336
  H         6.1128825604       -0.7782990109        2.8025060809
  H         6.1171770016        0.8489806487        2.7861326773
  H         7.7282669115       -2.2654275559       -0.0267906603
  H         7.7751389288        2.3059165393        0.0309231342
  H         3.2241317612       -0.7786849162       -2.7064224099
  H         3.1958396191        0.8477574706       -2.6921531583
  H         3.1816081780       -0.8489180458        2.6922880648
  H         3.2326834684        0.7768710857        2.6971447572
  H         4.5193402817       -2.2653458489       -0.0284562073
  H         4.4707385106        2.3063250413        0.0284387048
  H         0.1817873933       -0.8417193350       -2.6844612514
  H         0.1491897983        0.7810453704       -2.6985823631
  H         0.1363025189       -0.7810754238        2.6600618109
  H         0.1834782826        0.8410396555        2.6389516341
  H         1.5409541876       -2.2365779649       -0.0164018387
  H         1.5373071253        2.2337627355       -0.0229993626
