      77
 i =      204, E =     -1335.5606344598
 Fe        18.3411939725        0.0003071736        0.0007577292
 Fe        15.2963512816        0.0007652473       -0.0003229014
 Fe        12.2209400113        0.0046226380        0.0138211710
 Fe         9.1341745890        0.0007922707        0.0001771576
 Fe         6.1261817481        0.0229929508        0.0020485275
 Fe         3.1184157332        0.0003461730        0.0000058279
 Fe         0.0282249357        0.0101005450       -0.0198529019
  O        18.3137381741        0.0328700664        2.0876293048
  O        18.3113549650       -0.0320301528       -2.0887385290
  O        19.8627160385       -1.2251175429        0.0202370748
  O        19.8595843040        1.2420358986       -0.0304816565
  O        15.2709773361        0.0328257736        2.0876255456
  O        15.2683843526       -0.0328510256       -2.0878141951
  O        16.8166183263       -1.2426584940        0.0270170904
  O        16.8170663095        1.2423859980       -0.0272761067
  O        12.2433805247        0.0318534787        2.1431424985
  O        12.2243485547       -0.0317725606       -2.1194157939
  O        13.7707640486       -1.2295138126        0.0289356761
  O        13.7714978903        1.2354442929       -0.0253558306
  O         9.2373498609       -0.0253326487        2.1522505729
  O         9.2395242154        0.0255432086       -2.1484129814
  O        10.7322029520       -1.2268005236        0.0203514832
  O        10.7318635991        1.2357443646        0.0226715488
  O         6.1270534869        0.0248477521        2.2159430408
  O         6.1278354819        0.0316174825       -2.2128107247
  O         7.7584437079       -1.2802238627       -0.0206743983
  O         7.7650477720        1.2924069991        0.0234765352
  O         3.0077477283       -0.0226780781        2.1476857052
  O         3.0124152019        0.0237302039       -2.1504576243
  O         4.4926831935       -1.2801183105       -0.0176401452
  O         4.4861863453        1.2929357132        0.0247878846
  O        -0.0298457730        0.0334573320        2.1004760444
  O        -0.0334317987       -0.0258242971       -2.1433649629
  O         1.5159389714       -1.2196599969       -0.0195053648
  O         1.5174519726        1.2384668698       -0.0241294479
  H        18.4009751116       -0.8490523027       -2.6436367398
  H        18.3787423695        0.7759381203       -2.6587827436
  H        18.3726916757       -0.7751529330        2.6595073957
  H        18.4001426856        0.8499693049        2.6420937855
  H        19.8752772696       -2.2135935127        0.0265849955
  H        19.8670814438        2.2303035062       -0.0344669713
  H        15.1729650551       -0.8500871744       -2.6403847500
  H        15.1859880453        0.7750305839       -2.6568175406
  H        15.1797112045       -0.7737864066        2.6559160098
  H        15.1680889009        0.8508839346        2.6388175375
  H        16.8157026197       -2.2310874827        0.0328148261
  H        16.8155570500        2.2302419262       -0.0331484140
  H        11.9949117072       -0.8438606976       -2.6404456548
  H        12.0455146217        0.7761524569       -2.6668416875
  H        12.0505472365       -0.7789646944        2.6816306823
  H        11.9928382766        0.8406478732        2.6599492753
  H        13.7572375889       -2.2182381450        0.0317319457
  H        13.7606584945        2.2238257620       -0.0298748922
  H         9.0072937729       -0.7790999996       -2.6796155037
  H         9.0301589946        0.8452130406       -2.6673163472
  H         9.0329561512       -0.8457152092        2.6719068214
  H         8.9966762210        0.7782416485        2.6810313245
  H        10.7044270314       -2.2134526017        0.0196000344
  H        10.7033326211        2.2231715050        0.0154364285
  H         6.1143627957       -0.7838908185       -2.7757408201
  H         6.1109869386        0.8428754992       -2.7834800139
  H         6.1131039917       -0.7835225601        2.7898287984
  H         6.1163987218        0.8431767396        2.7758944673
  H         7.7346303114       -2.2663725457       -0.0191771848
  H         7.7577063653        2.2794071275        0.0277820700
  H         3.2202950821       -0.7821808063       -2.6892121315
  H         3.1915241436        0.8437448880       -2.6794565724
  H         3.1839344336       -0.8422416647        2.6784084031
  H         3.2244028634        0.7832186443        2.6831296802
  H         4.5166730332       -2.2662411983       -0.0195976106
  H         4.4934088450        2.2792651654        0.0234875047
  H         0.1842716338       -0.8382313307       -2.6689218242
  H         0.1384716089        0.7832400376       -2.6923312851
  H         0.1309544075       -0.7766275379        2.6508417761
  H         0.1813561797        0.8430809461        2.6348749942
  H         1.5420984963       -2.2073839213       -0.0113894739
  H         1.5473163926        2.2261210000       -0.0230576682
      77
 i =        1, E =     -1335.5606547146
 Fe        18.3409754378        0.0001472511       -0.0000220118
 Fe        15.2955562058        0.0000731628       -0.0000216289
 Fe        12.2208617740        0.0045977499        0.0138373887
 Fe         9.1337997301        0.0000226443        0.0001796005
 Fe         6.1261853906        0.0230107851        0.0020450796
 Fe         3.1178530621        0.0002272538       -0.0001563336
 Fe         0.0281548367        0.0101127299       -0.0198569743
  O        18.3137391215        0.0328252974        2.0876408778
  O        18.3113481126       -0.0320888689       -2.0887250954
  O        19.8627170111       -1.2251273661        0.0202390639
  O        19.8596103857        1.2420225604       -0.0304804779
  O        15.2709824416        0.0329157930        2.0876149511
  O        15.2683838972       -0.0327940337       -2.0878149200
  O        16.8166589702       -1.2426642079        0.0270255794
  O        16.8170570076        1.2423501165       -0.0272706071
  O        12.2433953991        0.0318385768        2.1431400138
  O        12.2243498057       -0.0317463147       -2.1193801095
  O        13.7707885164       -1.2295452996        0.0289347396
  O        13.7715532578        1.2354611127       -0.0253616967
  O         9.2373536945       -0.0254035513        2.1522462640
  O         9.2395244620        0.0256241968       -2.1484195951
  O        10.7322243566       -1.2266835335        0.0203603755
  O        10.7319042174        1.2357604794        0.0226723711
  O         6.1270517919        0.0248632669        2.2159491948
  O         6.1278344538        0.0317117905       -2.2128203189
  O         7.7584569124       -1.2802626515       -0.0206719837
  O         7.7650328831        1.2925401287        0.0234792490
  O         3.0077465355       -0.0227446861        2.1476883552
  O         3.0124164189        0.0238156839       -2.1504630927
  O         4.4926935063       -1.2801747414       -0.0176378888
  O         4.4862071321        1.2929720875        0.0247966748
  O        -0.0298179425        0.0334829356        2.1004483404
  O        -0.0334247117       -0.0257469246       -2.1433780535
  O         1.5159753170       -1.2197090238       -0.0195116057
  O         1.5174838752        1.2385253062       -0.0241354394
  H        18.4009790206       -0.8490313284       -2.6436165076
  H        18.3787337226        0.7759606477       -2.6588072186
  H        18.3726654028       -0.7751249041        2.6594989735
  H        18.4001441918        0.8499973547        2.6421048627
  H        19.8752751031       -2.2135809413        0.0265865823
  H        19.8670757560        2.2303177575       -0.0344807906
  H        15.1729473403       -0.8501191008       -2.6403952845
  H        15.1859879178        0.7750027244       -2.6568092960
  H        15.1796960438       -0.7738222278        2.6559451569
  H        15.1680708349        0.8508526931        2.6387906114
  H        16.8156964827       -2.2310741296        0.0328194028
  H        16.8155616457        2.2302910745       -0.0331553779
  H        11.9948787905       -0.8438774358       -2.6404135604
  H        12.0455221964        0.7761366813       -2.6668191190
  H        12.0505649995       -0.7789537662        2.6816337131
  H        11.9928120665        0.8406609364        2.6599465305
  H        13.7572396347       -2.2181963507        0.0317400651
  H        13.7606542622        2.2238282639       -0.0298830963
  H         9.0072577846       -0.7791199381       -2.6796342910
  H         9.0301778574        0.8451858365       -2.6672868641
  H         9.0329749574       -0.8456985683        2.6718785241
  H         8.9966344207        0.7782626506        2.6810595578
  H        10.7044232582       -2.2135387171        0.0196100431
  H        10.7033316384        2.2231560120        0.0154406996
  H         6.1143566422       -0.7839276193       -2.7757702575
  H         6.1109823648        0.8428320926       -2.7834452676
  H         6.1130981113       -0.7835205474        2.7898329839
  H         6.1163922434        0.8431710720        2.7758844086
  H         7.7346345469       -2.2663278302       -0.0191868967
  H         7.7577064089        2.2793060999        0.0277898920
  H         3.2203198232       -0.7821992522       -2.6892402553
  H         3.1914978619        0.8437161717       -2.6794250233
  H         3.1839054706       -0.8422268517        2.6783826519
  H         3.2244231733        0.7832300227        2.6831562984
  H         4.5166718286       -2.2662016170       -0.0196104652
  H         4.4934080560        2.2792439434        0.0234942497
  H         0.1842970408       -0.8382676869       -2.6689362873
  H         0.1384410057        0.7831913517       -2.6923149924
  H         0.1309265565       -0.7766329098        2.6507855841
  H         0.1813603816        0.8430605109        2.6347849090
  H         1.5420977695       -2.2073561848       -0.0114002445
  H         1.5473150614        2.2260830031       -0.0230662903
      77
 i =        2, E =     -1335.5606571306
 Fe        18.3412115028        0.0002513542       -0.0001069525
 Fe        15.2954206098       -0.0000128507        0.0000246120
 Fe        12.2207345229        0.0045814601        0.0138601617
 Fe         9.1339445962        0.0000541626        0.0002047096
 Fe         6.1261591909        0.0230470521        0.0020409474
 Fe         3.1180180741        0.0001172862       -0.0001692311
 Fe         0.0280433725        0.0101357745       -0.0198569153
  O        18.3137395894        0.0327716556        2.0876472358
  O        18.3113396097       -0.0321606294       -2.0887189422
  O        19.8627175321       -1.2251412450        0.0202322001
  O        19.8596465866        1.2420006357       -0.0304883365
  O        15.2709823201        0.0330147417        2.0876042430
  O        15.2683793239       -0.0327350131       -2.0878121454
  O        16.8167017281       -1.2426812135        0.0270327703
  O        16.8170193794        1.2422827592       -0.0272679406
  O        12.2434200655        0.0318201408        2.1431373732
  O        12.2243513232       -0.0317195055       -2.1193241013
  O        13.7708026174       -1.2296091926        0.0289366914
  O        13.7716228129        1.2354776233       -0.0253671655
  O         9.2373563592       -0.0254950130        2.1522398938
  O         9.2395226302        0.0257135212       -2.1484268745
  O        10.7322500116       -1.2265496514        0.0203730208
  O        10.7319580121        1.2357654348        0.0226747826
  O         6.1270521119        0.0248805761        2.2159570179
  O         6.1278349280        0.0318205206       -2.2128333019
  O         7.7584579547       -1.2803424853       -0.0206693856
  O         7.7650154662        1.2926841360        0.0234846688
  O         3.0077413481       -0.0228267548        2.1476912552
  O         3.0124152869        0.0239167985       -2.1504735930
  O         4.4926955546       -1.2802340456       -0.0176373360
  O         4.4862203942        1.2929985620        0.0248083996
  O        -0.0297736682        0.0335115101        2.1003946308
  O        -0.0334137738       -0.0256579618       -2.1433960588
  O         1.5160185433       -1.2197761351       -0.0195247339
  O         1.5175208321        1.2386001024       -0.0241463282
  H        18.4009857330       -0.8490083990       -2.6435922539
  H        18.3787176566        0.7759857958       -2.6588377223
  H        18.3726250612       -0.7750885867        2.6594916703
  H        18.4001458676        0.8500324583        2.6421144512
  H        19.8752724600       -2.2135648680        0.0265912039
  H        19.8670656981        2.2303354109       -0.0345007844
  H        15.1729209085       -0.8501568640       -2.6404076482
  H        15.1859872604        0.7749699962       -2.6568000860
  H        15.1796766155       -0.7738604680        2.6559834035
  H        15.1680428893        0.8508200719        2.6387553074
  H        16.8156904626       -2.2310573318        0.0328280781
  H        16.8155664292        2.2303531045       -0.0331649330
  H        11.9948279019       -0.8438971728       -2.6403595504
  H        12.0455334413        0.7761166054       -2.6667848448
  H        12.0505920631       -0.7789386217        2.6816412284
  H        11.9927712549        0.8406780120        2.6599384243
  H        13.7572405727       -2.2181430468        0.0317526476
  H        13.7606512346        2.2238331371       -0.0298966474
  H         9.0072046070       -0.7791365120       -2.6796595022
  H         9.0302042121        0.8451597787       -2.6672467877
  H         9.0330020977       -0.8456835719        2.6718448307
  H         8.9965722665        0.7782831965        2.6810926150
  H        10.7044214677       -2.2136421467        0.0196260947
  H        10.7033272614        2.2231355982        0.0154472110
  H         6.1143462795       -0.7839683493       -2.7758063063
  H         6.1109745797        0.8427830490       -2.7834025939
  H         6.1130874650       -0.7835154233        2.7898391584
  H         6.1163812620        0.8431660900        2.7758702076
  H         7.7346357048       -2.2662718940       -0.0192022334
  H         7.7577098433        2.2791845142        0.0278024056
  H         3.2203563198       -0.7822139664       -2.6892759169
  H         3.1914603706        0.8436879413       -2.6793843535
  H         3.1838626865       -0.8422151324        2.6783491047
  H         3.2244533896        0.7832367782        2.6831899419
  H         4.5166704395       -2.2661558429       -0.0196303068
  H         4.4934064659        2.2792205623        0.0235053262
  H         0.1843339681       -0.8383114364       -2.6689513128
  H         0.1383959370        0.7831317528       -2.6923006895
  H         0.1308809741       -0.7766399862        2.6506974775
  H         0.1813686689        0.8430376088        2.6346494374
  H         1.5420972233       -2.2073253651       -0.0114165564
  H         1.5473147266        2.2260390395       -0.0230794847
      77
 i =        3, E =     -1335.5606598204
 Fe        18.3409966794        0.0001897626        0.0000035355
 Fe        15.2956674742        0.0000549530       -0.0000122483
 Fe        12.2204741726        0.0045579905        0.0139112776
 Fe         9.1338861530        0.0001833348        0.0001873823
 Fe         6.1261110289        0.0231267999        0.0020312383
 Fe         3.1179905012        0.0001515202       -0.0001600627
 Fe         0.0278121767        0.0101887242       -0.0198609193
  O        18.3137447733        0.0326845180        2.0876546123
  O        18.3113247614       -0.0322834638       -2.0887130114
  O        19.8627281975       -1.2251678415        0.0202124868
  O        19.8597341726        1.2419717784       -0.0305105575
  O        15.2709772911        0.0331822778        2.0875883014
  O        15.2683639245       -0.0326389245       -2.0878061743
  O        16.8167994102       -1.2427062816        0.0270474137
  O        16.8169429153        1.2421525075       -0.0272648946
  O        12.2434740966        0.0317920326        2.1431340421
  O        12.2243482798       -0.0316783131       -2.1191905630
  O        13.7708234275       -1.2297316224        0.0289444500
  O        13.7717624389        1.2355070239       -0.0253767151
  O         9.2373599490       -0.0256556914        2.1522287084
  O         9.2395187928        0.0258691486       -2.1484391133
  O        10.7323023979       -1.2263181304        0.0204015482
  O        10.7320760916        1.2357755583        0.0226835577
  O         6.1270531348        0.0249118174        2.2159706466
  O         6.1278362662        0.0320054838       -2.2128577603
  O         7.7584716835       -1.2804735818       -0.0206642669
  O         7.7649906214        1.2929258307        0.0235011809
  O         3.0077317305       -0.0229756956        2.1476948839
  O         3.0124151775        0.0240935975       -2.1504939022
  O         4.4927111039       -1.2803462719       -0.0176388120
  O         4.4862560891        1.2930417610        0.0248364332
  O        -0.0296785258        0.0335579461        2.1002461480
  O        -0.0333917746       -0.0255098482       -2.1434317872
  O         1.5161139687       -1.2198968582       -0.0195584238
  O         1.5176005551        1.2387297178       -0.0241706394
  H        18.4010032971       -0.8489746379       -2.6435475164
  H        18.3786750230        0.7760229281       -2.6588953213
  H        18.3725285604       -0.7750208558        2.6594875224
  H        18.4001469631        0.8500988410        2.6421263887
  H        19.8752654228       -2.2135343335        0.0266028313
  H        19.8670436158        2.2303664477       -0.0345486380
  H        15.1728605920       -0.8502257941       -2.6404235647
  H        15.1859843214        0.7749100202       -2.6567898156
  H        15.1796353085       -0.7739187707        2.6560526016
  H        15.1679728518        0.8507707275        2.6386884624
  H        16.8156794664       -2.2310271666        0.0328492923
  H        16.8155741542        2.2304646003       -0.0331874213
  H        11.9947094773       -0.8439328829       -2.6402216878
  H        12.0455605051        0.7760758636       -2.6667059709
  H        12.0506574806       -0.7789077882        2.6816637074
  H        11.9926774635        0.8407098195        2.6599132517
  H        13.7572421818       -2.2180497493        0.0317828128
  H        13.7606470943        2.2238477692       -0.0299297839
  H         9.0070837093       -0.7791504781       -2.6797036595
  H         9.0302593820        0.8451275274       -2.6671696281
  H         9.0330606675       -0.8456739753        2.6717801303
  H         8.9964313050        0.7783029309        2.6811524026
  H        10.7044192117       -2.2138193679        0.0196650538
  H        10.7033180365        2.2230938952        0.0154626108
  H         6.1143219076       -0.7840329490       -2.7758707831
  H         6.1109548462        0.8427034933       -2.7833270648
  H         6.1130617152       -0.7835006025        2.7898525896
  H         6.1163543285        0.8431616162        2.7758411971
  H         7.7346362946       -2.2661796166       -0.0192390251
  H         7.7577171741        2.2789742133        0.0278326445
  H         3.2204364481       -0.7822214417       -2.6893442565
  H         3.1913773814        0.8436542732       -2.6793080031
  H         3.1837645596       -0.8422121793        2.6782851684
  H         3.2245197054        0.7832302157        2.6832552853
  H         4.5166686600       -2.2660778508       -0.0196777818
  H         4.4934010390        2.2791790718        0.0235321623
  H         0.1844165288       -0.8383894692       -2.6689703781
  H         0.1382961510        0.7830230321       -2.6922894329
  H         0.1307723892       -0.7766558099        2.6504854857
  H         0.1813966073        0.8430019931        2.6343370882
  H         1.5420967918       -2.2072815886       -0.0114556328
  H         1.5473171887        2.2259693878       -0.0231115238
      77
 i =        4, E =     -1335.5606611401
 Fe        18.3410771480        0.0002191297        0.0000387192
 Fe        15.2954641515        0.0001046757       -0.0000334693
 Fe        12.2202307552        0.0045420999        0.0139689642
 Fe         9.1338149745        0.0001182626        0.0001825002
 Fe         6.1260608261        0.0231991101        0.0020204507
 Fe         3.1179069492        0.0002041175       -0.0001536533
 Fe         0.0275870805        0.0102468939       -0.0198727901
  O        18.3137527772        0.0326447512        2.0876614172
  O        18.3113075525       -0.0323525212       -2.0887077576
  O        19.8627328447       -1.2251842386        0.0201923243
  O        19.8598184935        1.2419571827       -0.0305318909
  O        15.2709769866        0.0332742113        2.0875783810
  O        15.2683487015       -0.0325933403       -2.0878032414
  O        16.8169092789       -1.2427265194        0.0270657708
  O        16.8168771691        1.2420717497       -0.0272617445
  O        12.2435340357        0.0317851955        2.1431368882
  O        12.2243377444       -0.0316635111       -2.1190372356
  O        13.7708554285       -1.2298056534        0.0289527840
  O        13.7719108340        1.2355272190       -0.0253866239
  O         9.2373596494       -0.0257503048        2.1522204354
  O         9.2395144830        0.0259622979       -2.1484466903
  O        10.7323420083       -1.2261729899        0.0204302533
  O        10.7321957898        1.2357882269        0.0226967010
  O         6.1270565831        0.0249338822        2.2159793275
  O         6.1278404215        0.0321059434       -2.2128766618
  O         7.7585001900       -1.2805439618       -0.0206616309
  O         7.7649725328        1.2930749716        0.0235238801
  O         3.0077236898       -0.0230722799        2.1476969005
  O         3.0124175493        0.0242013928       -2.1505103631
  O         4.4927269508       -1.2804127864       -0.0176424890
  O         4.4862957141        1.2930654870        0.0248713524
  O        -0.0295782889        0.0335778678        2.1000411440
  O        -0.0333687288       -0.0254373959       -2.1434621637
  O         1.5162096067       -1.2199750094       -0.0196006033
  O         1.5176774144        1.2388167156       -0.0241950894
  H        18.4010284605       -0.8489676392       -2.6435151786
  H        18.3786211902        0.7760306034       -2.6589395179
  H        18.3724152467       -0.7749711903        2.6595038425
  H        18.4001452732        0.8501490446        2.6421229522
  H        19.8752574740       -2.2135134121        0.0266164274
  H        19.8670178084        2.2303875834       -0.0346062191
  H        15.1727917047       -0.8502741904       -2.6404201787
  H        15.1859772511        0.7748680084       -2.6567964971
  H        15.1795909723       -0.7739368503        2.6560992976
  H        15.1678825841        0.8507573136        2.6386367671
  H        16.8156659863       -2.2310064124        0.0328741822
  H        16.8155817504        2.2305339582       -0.0332140449
  H        11.9945745222       -0.8439571696       -2.6400463630
  H        12.0455924590        0.7760385652       -2.6666184594
  H        12.0507347395       -0.7788802724        2.6816962528
  H        11.9925708197        0.8407323776        2.6598735274
  H        13.7572431837       -2.2179951341        0.0318189884
  H        13.7606425169        2.2238687125       -0.0299691076
  H         9.0069502487       -0.7791270673       -2.6797308917
  H         9.0303135048        0.8451364214       -2.6671080227
  H         9.0331206467       -0.8457038778        2.6717268368
  H         8.9962766043        0.7782790828        2.6811945205
  H        10.7044182871       -2.2139209284        0.0197117262
  H        10.7033074775        2.2230577438        0.0154807134
  H         6.1142930514       -0.7840577745       -2.7759134647
  H         6.1109295008        0.8426690064       -2.7832786323
  H         6.1130304583       -0.7834798054        2.7898661191
  H         6.1163213637        0.8431675282        2.7758146601
  H         7.7346337625       -2.2661298221       -0.0192823100
  H         7.7577228413        2.2788461917        0.0278689585
  H         3.2205209748       -0.7821871676       -2.6893984609
  H         3.1912889844        0.8436674490       -2.6792500418
  H         3.1836552092       -0.8422481082        2.6782333241
  H         3.2245891888        0.7831862095        2.6833099594
  H         4.5166673879       -2.2660360787       -0.0197341227
  H         4.4933938468        2.2791531402        0.0235634807
  H         0.1845048423       -0.8384390674       -2.6689664517
  H         0.1381891184        0.7829486187       -2.6923124063
  H         0.1306437323       -0.7766724365        2.6502384066
  H         0.1814402593        0.8429903153        2.6339919183
  H         1.5420973524       -2.2072736893       -0.0115015489
  H         1.5473219893        2.2259402773       -0.0231500182
      77
 i =        5, E =     -1335.5606646563
 Fe        18.3412456707        0.0002147778       -0.0001444634
 Fe        15.2955190490       -0.0000944144        0.0000495134
 Fe        12.2197924864        0.0045309654        0.0141159689
 Fe         9.1340660401       -0.0000634719        0.0002424107
 Fe         6.1259350295        0.0233181496        0.0019919858
 Fe         3.1181406893        0.0000691118       -0.0001564549
 Fe         0.0271463832        0.0103798780       -0.0199367125
  O        18.3137838180        0.0327192216        2.0876731858
  O        18.3112653795       -0.0323250678       -2.0887049541
  O        19.8627374980       -1.2251890994        0.0201440389
  O        19.8599919056        1.2419931281       -0.0305811077
  O        15.2709789188        0.0332297007        2.0875819657
  O        15.2683025440       -0.0326602938       -2.0878098177
  O        16.8171675774       -1.2427241396        0.0271164972
  O        16.8167644287        1.2420571396       -0.0272577287
  O        12.2436854601        0.0318424622        2.1431636286
  O        12.2242819725       -0.0317165731       -2.1186155172
  O        13.7709217159       -1.2298085728        0.0289779406
  O        13.7722178864        1.2355599335       -0.0254068235
  O         9.2373433817       -0.0257447951        2.1522143915
  O         9.2395032108        0.0259549945       -2.1484430099
  O        10.7323707105       -1.2261711806        0.0204966270
  O        10.7324322365        1.2358166006        0.0227457229
  O         6.1270715796        0.0249522274        2.2159794597
  O         6.1278588784        0.0320472277       -2.2128967697
  O         7.7585940823       -1.2805109236       -0.0206661395
  O         7.7649559051        1.2930567912        0.0235981041
  O         3.0077105091       -0.0231101043        2.1476960755
  O         3.0124314034        0.0242130418       -2.1505303226
  O         4.4927536468       -1.2803868451       -0.0176614398
  O         4.4863878392        1.2930532549        0.0249713093
  O        -0.0293494826        0.0335335755        2.0993583158
  O        -0.0333185573       -0.0255313583       -2.1435064928
  O         1.5163926632       -1.2199958064       -0.0197243738
  O         1.5178137531        1.2388604580       -0.0242481863
  H        18.4011085674       -0.8490415147       -2.6434826733
  H        18.3784591383        0.7759470322       -2.6589931655
  H        18.3720990463       -0.7749192126        2.6596111221
  H        18.4001285421        0.8502088790        2.6420633442
  H        19.8752363039       -2.2135002410        0.0266526876
  H        19.8669518256        2.2303992048       -0.0347708638
  H        15.1726091595       -0.8503139836       -2.6403450236
  H        15.1859485238        0.7748311986       -2.6568700224
  H        15.1794823123       -0.7738398119        2.6561261210
  H        15.1676107830        0.8508468052        2.6385710946
  H        16.8156333323       -2.2309970666        0.0329436940
  H        16.8155953103        2.2305332776       -0.0332881131
  H        11.9942135637       -0.8439746565       -2.6395155274
  H        12.0456806401        0.7759624946       -2.6663826592
  H        12.0509515879       -0.7788275669        2.6818044018
  H        11.9922885028        0.8407520560        2.6597335918
  H        13.7572477826       -2.2180131487        0.0319215123
  H        13.7606374264        2.2239319700       -0.0300799532
  H         9.0066057729       -0.7789449655       -2.6797358662
  H         9.0304292063        0.8453021807       -2.6670213756
  H         9.0332597469       -0.8459047161        2.6716459710
  H         8.9958804222        0.7780744303        2.6812237575
  H        10.7044262351       -2.2138732116        0.0198449193
  H        10.7032824420        2.2230049696        0.0155309847
  H         6.1142117658       -0.7839811266       -2.7759358166
  H         6.1108528864        0.8427456358       -2.7832653585
  H         6.1129402886       -0.7834132867        2.7898976850
  H         6.1162261228        0.8432193171        2.7757649493
  H         7.7346174597       -2.2661644506       -0.0194021452
  H         7.7577323165        2.2788624784        0.0279725110
  H         3.2207261138       -0.7819681193       -2.6894726013
  H         3.1910720720        0.8438611176       -2.6791862753
  H         3.1833701931       -0.8424652429        2.6781578327
  H         3.2247554270        0.7829560454        2.6833971630
  H         4.5166650425       -2.2660693522       -0.0198918937
  H         4.4933742311        2.2791496807        0.0236514610
  H         0.1847236975       -0.8384578441       -2.6688796006