     270
 i =       15, E =    -15928.0904838271
 Fe         0.0329906257        2.9292923158       13.7441816281
 Fe         2.4853441764        4.3457559286        4.8981103459
 Fe         2.4865417240        1.5164417478        9.3192255890
 Fe         2.4869321872        4.3485729341        2.1177455334
 Fe         2.4859971613        1.5133031768        6.5375434461
 Fe         0.0319344672        2.9271985316       10.9594727679
 Fe         0.0334158140        2.9299085088        4.3275512557
 Fe         2.4830995059        4.3542030569        8.7404790616
 Fe         2.4868029697        1.5121256065       13.1703886190
 Fe         2.4875199806        1.5126965817        2.6879474752
 Fe         0.0326390713        2.9350047543        7.1112942018
 Fe         2.4860314862        4.3459064524       11.5280783156
 Fe         4.9399518766        2.9296889602       13.7436989801
 Fe         7.3909281656        4.3466498739        4.9034002040
 Fe         7.3949598587        1.5105298381        9.3197621897
 Fe         7.3928279566        4.3463343761        2.1166729762
 Fe         7.3940440149        1.5108378657        6.5377298552
 Fe         4.9404653600        2.9313900206       10.9563466503
 Fe         4.9399362533        2.9318129804        4.3286836648
 Fe         7.3955167244        4.3411866755        8.7489665762
 Fe         7.3947995391        1.5116295275       13.1708504527
 Fe         7.3952267087        1.5116667892        2.6892185220
 Fe         4.9413491276        2.9353269068        7.1086302863
 Fe         7.3936615555        4.3457607600       11.5307978030
 Fe         9.8490043832        2.9284796049       13.7442276381
 Fe        12.3062561866        4.3480574862        4.9034618266
 Fe        12.3038897221        1.5121378615        9.3197158701
 Fe        12.3050193737        4.3466271750        2.1167064503
 Fe        12.3040479520        1.5111784214        6.5376932817
 Fe         9.8490127889        2.9284521015       10.9595699065
 Fe         9.8489823029        2.9283980429        4.3271070755
 Fe        12.2991317264        4.3467554733        8.7489706170
 Fe        12.3031072028        1.5114081865       13.1709008672
 Fe        12.3028953345        1.5118706499        2.6892751560
 Fe         9.8489466202        2.9284233219        7.1096012045
 Fe        12.3041167587        4.3461876676       11.5308322229
 Fe        -2.4202495968        7.1791573548       13.7436877035
 Fe         0.0331611126        8.5968328584        4.8980398675
 Fe         0.0382960737        5.7566043545        9.3136253057
 Fe         0.0349939031        8.5941687173        2.1177215660
 Fe         0.0542357606        5.7687412628        6.5405355229
 Fe        -2.4190301537        7.1779411905       10.9563142035
 Fe        -2.4185094859        7.1780688843        4.3287340425
 Fe         0.0418434224        8.5946102483        8.7403885805
 Fe         0.0332213388        5.7626342433       13.1708623727
 Fe         0.0382407893        5.7648691738        2.6929432223
 Fe        -2.4161272006        7.1752224124        7.1086779911
 Fe         0.0332150306        8.5962784566       11.5280505090
 Fe         2.4865455371        7.1791565682       13.7424660792
 Fe         4.9410800889        8.5950147406        4.8980112383
 Fe         4.9425193863        5.7702906971        9.3136818385
 Fe         4.9377306317        8.5946976432        2.1177348315
 Fe         4.9243388774        5.7779018178        6.5405233970
 Fe         2.4865574863        7.1791366208       10.9489516942
 Fe         2.4865604897        7.1791927195        4.3772095366
 Fe         4.9347770305        8.5886252133        8.7404518980
 Fe         4.9399867544        5.7627129058       13.1708529485
 Fe         4.9355761644        5.7659826108        2.6929279333
 Fe         2.4865620134        7.1791315123        7.1181519824
 Fe         4.9404836000        8.5952715268       11.5281131326
 Fe         7.3938278796        7.1792117522       13.7441414422
 Fe         9.8498398956        8.5950569609        4.8998020142
 Fe         9.8480582764        5.7626099465        9.3197273819
 Fe         9.8490172954        8.5957117548        2.1157016753
 Fe         9.8488044853        5.7632381206        6.5377124112
 Fe         7.3961909665        7.1793885811       10.9594404224
 Fe         7.3931261503        7.1792731881        4.3275348354
 Fe         9.8491660046        8.5962070327        8.7459401218
 Fe         9.8491091408        5.7623231888       13.1708747681
 Fe         9.8488782463        5.7618198505        2.6892471442
 Fe         7.3890697630        7.1760603592        7.1113146876
 Fe         9.8499590012        8.5960132815       11.5306869290
 Fe        -4.8758503521       11.4298496143       13.7427643045
 Fe        -2.4213367963       12.8480120203        4.8997954709
 Fe        -2.4175867744       10.0104840275        9.3192265461
 Fe        -2.4214293150       12.8469277311        2.1156928743
 Fe        -2.4200802410       10.0126451293        6.5375508623
 Fe        -4.8758720563       11.4299104738       10.9564761094
 Fe        -4.8759008120       11.4298614802        4.3266789876
 Fe        -2.4220117232       12.8468717743        8.7459713124
 Fe        -2.4213055724       10.0124690910       13.1703831656
 Fe        -2.4212729299       10.0115857457        2.6879470990
 Fe        -4.8759135224       11.4299279908        7.1095336529
 Fe        -2.4220994776       12.8476215777       11.5306923417
 Fe         0.0328899364       11.4289553581       13.7441393753
 Fe         2.4873062814       12.8426165955        4.9033834189
 Fe         2.4788186978       10.0104990856        9.3136088609
 Fe         2.4867559910       12.8445329841        2.1166243153
 Fe         2.4811818828        9.9907320512        6.5404868732
 Fe         0.0315919403       11.4308712816       10.9594289807
 Fe         0.0331398363       11.4282324101        4.3274924192
 Fe         2.4898154008       12.8494127372        8.7489543506
 Fe         2.4865393235       10.0120818153       13.1708149544
 Fe         2.4858317367       10.0066270346        2.6928881447
 Fe         0.0379153308       11.4263365884        7.1112847815
 Fe         2.4868345208       12.8454965431       11.5307798328
 Fe         4.9400373971       11.4285422353       13.7437202249
 Fe         7.3935204363       12.8465055256        4.8997905754
 Fe         7.3906651749       10.0106015435        9.3191917434
 Fe         7.3946018923       12.8468870703        2.1156957803
 Fe         7.3936591321       10.0116181328        6.5375468031
 Fe         4.9383067301       11.4281299230       10.9563233394
 Fe         4.9381551593       11.4275859389        4.3286630777
 Fe         7.3948236533       12.8465306275        8.7459537237
 Fe         7.3942577788       10.0128464677       13.1703939566
 Fe         7.3934181220       10.0131933871        2.6879496905
 Fe         4.9344331805       11.4269305339        7.1085961992
 Fe         7.3942821483       12.8460101695       11.5307018310
  O        -0.9189214950        4.3453159961        3.5050994632
  O         3.9916659501        1.5114109145        7.9279741701
  O         1.5358207202        2.9275910954       12.3527621940
  O         4.1899618973        1.3959309652        3.5061680122
  O         1.7347218155        2.8054778065        7.9301008131
  O        -0.7203078208        4.2297135656       12.3533997449
  O         1.7335438987        3.0404825026        3.5037797585
  O        -0.7430288439        4.4453667361        7.9270402213
  O         4.1895722564        1.6258122192       12.3522292637
  O         0.9828439998        1.5105069503       14.5620636990
  O         3.4380432747        2.9237998447        5.7156346994
  O         0.9813545845        4.3403310174       10.1491999173
  O         0.7843729713        4.4600461888       14.5626030350
  O         0.7841506097        1.6234401763        5.7172720822
  O         3.2384672442        3.0405405829       10.1428951910
  O         3.2373461343        2.8129148893       14.5619181950
  O         0.7786764272        4.2211199689        5.7127867435
  O         0.7840214701        1.3948737990       10.1409972217
  O         3.9936940076        4.3374058865        3.4965009545
  O         8.8982132945        1.5144529281        7.9299996663
  O         6.4446578805        2.9280616197       12.3517706449
  O         9.0978645936        1.3970400532        3.5060660928
  O         6.6439476301        2.8097513025        7.9296506443
  O         4.1892475754        4.2298659378       12.3517068372
  O         6.6435000885        3.0428161423        3.5065795326
  O         4.1912397745        4.4558540798        7.9310757259
  O         9.0977632239        1.6262210011       12.3523432182
  O         5.8914011126        1.5117107642       14.5625543771
  O         8.3458402406        2.9281756790        5.7175247132
  O         5.8941758069        4.3450136732       10.1405732330
  O         5.6934694682        4.4604093437       14.5615823617
  O         5.6936095793        1.6252966039        5.7170911736
  O         8.1477012618        3.0411698725       10.1417216759
  O         8.1464310207        2.8139856801       14.5629738731
  O         5.6944502162        4.2292421383        5.7210041897
  O         5.6926972551        1.3964177013       10.1408277462
  O         8.8984751956        4.3445968241        3.5060916030
  O        13.8072953812        1.5114498751        7.9286924594
  O        11.3525244278        2.9288048625       12.3523041183
  O        14.0060719149        1.3965717766        3.5057007030
  O        11.5489118059        2.8118065070        7.9300015909
  O         9.0970479596        4.2301950036       12.3522983187
  O        11.5508537673        3.0435161267        3.5061637565
  O         9.1000369337        4.4587966254        7.9300817242
  O        14.0055774544        1.6252511658       12.3524658716
  O        10.7995408095        1.5111284367       14.5629452035
  O        13.2515251511        2.9249150596        5.7151236296
  O        10.7975186679        4.3454308077       10.1416895505
  O        10.6013273385        4.4601593251       14.5629401259
  O        10.6007937995        1.6266355927        5.7175033786
  O        13.0528962500        3.0409041042       10.1433614662
  O        13.0546610943        2.8131885320       14.5628826131
  O        10.6004654332        4.2302882513        5.7175644549
  O        10.6020577068        1.3985780619       10.1417601383
  O        -3.3733653060        8.5955555219        3.5061695359
  O         1.4830194791        5.6984013125        7.9310622315
  O        -0.9187212487        7.1792091539       12.3516871905
  O         1.7385178413        5.6475870040        3.5048454361
  O        -0.7242748521        7.0645552416        7.9310773277
  O        -3.1740708714        8.4809663899       12.3521574508
  O        -0.7279147032        7.2947340652        3.4966602406
  O        -3.1743386657        8.7095895392        7.9280647688
  O         1.7353408809        5.8769173648       12.3516298789
  O        -1.4711620697        5.7612549265       14.5615952142
  O         0.9433214157        7.1636281802        5.6762790878
  O        -1.4732136192        8.5973354850       10.1428701943
  O        -1.6699070677        8.7120395016       14.5618431547
  O        -1.6718416673        5.8759284483        5.7209494208
  O         0.7826504230        7.2941232174       10.1402352730
  O         0.7835373487        7.0636123896       14.5606334548
  O        -1.6743815109        8.4828677164        5.7157111085
  O        -1.6714686872        5.6450655714       10.1406735634
  O         1.5343356572        8.5927047345        3.5047331905
  O         6.4688991812        5.7490969647        7.9269348980
  O         3.9900478243        7.1795185642       12.3515843968
  O         6.6435579954        5.6466395049        3.5051227138
  O         4.2706988231        7.0504936339        7.9310689156
  O         1.7345837114        8.4808245588       12.3516134549
  O         4.1870453489        7.2969852439        3.5047881546
  O         1.7060135594        8.7884035415        7.9309819289
  O         6.6443811572        5.8764497583       12.3534561933
  O         3.4382183735        5.7619112107       14.5605453322
  O         5.9021432414        7.1790463619        5.7126453296
  O         3.4382506512        8.5973995997       10.1403341315
  O         3.2382005430        8.7117860275       14.5605330358
  O         3.2717673805        5.8504279486        5.6762758748
  O         5.6976502957        7.2946851519       10.1493161445
  O         5.6925697401        7.0643655186       14.5626530059
  O         3.2448689108        8.5233153503        5.6761866971
  O         3.2389696915        5.6457981867       10.1402602831
  O         6.4473679776        8.5962316372        3.5037711462
  O        11.3488908447        5.7634158845        7.9296391057
  O         8.8994103838        7.1796363258       12.3523464935
  O        11.5509057383        5.6472186470        3.5065714849
  O         9.0970779110        7.0647994233        7.9287055663
  O         6.6439843395        8.4813598884       12.3527814390
  O         9.0971817343        7.2943081213        3.5057353933
  O         6.6503109993        8.7148027123        7.9301903085
  O        11.5510136041        5.8769152420       12.3518223336
  O         8.3460877259        5.7621253231       14.5628075414
  O        10.7983028559        7.1786423959        5.7170788270
  O         8.3472292303        8.5967806131       10.1409417296
  O         8.1477357013        8.7110074039       14.5620605839
  O         8.1508140758        5.8767538297        5.7151152620
  O        10.6005561402        7.2938768682       10.1407662052
  O        10.6010508726        7.0642021458       14.5626199952
  O         8.1492153542        8.4825316175        5.7173371264
  O         8.1496628113        5.6467026217       10.1433832622
  O        -5.8258387221       12.8462771710        3.5055608021
  O        -0.9251792373       10.0169692113        7.9300377386
  O        -3.3725363044       11.4300317513       12.3513409754
  O        -0.7209851444        9.9005928310        3.5036904435
  O        -3.1755486388       11.3158624525        7.9293611483
  O        -5.6275861919       12.7314964028       12.3513478053
  O        -3.1740477452       11.5443745880        3.5056480954
  O        -5.6272836491       12.9593031149        7.9294184873
  O        -0.7198021980       10.1283093753       12.3528208733
  O        -3.9256075940       10.0129282637       14.5623925275
  O        -1.4734560516       11.4313420820        5.7172991672
  O        -3.9256924456       12.8475722180       10.1399369009
  O        -4.1237837292       12.9610638235       14.5623799704
  O        -4.1242056885       10.1282330428        5.7172598102
  O        -1.6713527977       11.5456663514       10.1409234002
  O        -1.6705577246       11.3157399394       14.5621187946
  O        -4.1244295179       12.7315276644        5.7173357394
  O        -4.1230498774        9.8981451787       10.1400163603
  O        -0.9183962823       12.8463767928        3.5056724820
  O         3.9929518073       10.0169422947        7.9309904214
  O         1.5359692546       11.4311327491       12.3534045947
  O         4.1940922088        9.9051570950        3.4964809671
  O         1.7340029050       11.3426752665        7.9269662896
  O        -0.7201471316       12.7324245211       12.3523879731
  O         1.7353202843       11.5453435912        3.5051401499
  O        -0.7196267559       12.9610192835        7.9287720948
  O         4.1894730312       10.1282140017       12.3517287481
  O         0.9830605377       10.0128817379       14.5626058414
  O         3.4373649844       11.4320317547        5.7209471099
  O         0.9822357130       12.8496313098       10.1433537852
  O         0.7841131692       12.9620188479       14.5627736040
  O         0.7789250271       10.1371108598        5.7126055714
  O         3.2373139141       11.5472475029       10.1404651443
  O         3.2376914560       11.3156207989       14.5616140961
  O         0.7823799911       12.7355268113        5.7151809032
  O         0.7810564733        9.9022271443       10.1493211635
  O         3.9903388945       12.8472308629        3.5065026248
  O         8.9002933438       10.0143292838        7.9293392645
  O         6.4445305131       11.4304840559       12.3521577577
  O         9.0974193136        9.8987294812        3.5055975714
  O         6.6425419660       11.3163485058        7.9280006614
  O         4.1891995574       12.7322867477       12.3517828212
  O         6.6433834442       11.5457774822        3.5062103433
  O         4.1919515487       12.9640898015        7.9296604988
  O         9.0976782773       10.1278830281       12.3513994698
  O         5.8925432565       10.0122753150       14.5618722461
  O         8.3460482749       11.4296961492        5.7172824180
  O         5.8915390092       12.8469692930       10.1407803972
  O         5.6924197231       12.9613627537       14.5625698411
  O         5.6962086737       10.1308064296        5.7156608089
  O         8.1462321253       11.5437550157       10.1399434073
  O         8.1469894034       11.3153599767       14.5624447318
  O         5.6928367663       12.7333639297        5.7170775510
  O         5.6948016326        9.8993471479       10.1429306866
