 DBCSR| Multiplication driver                                               BLAS
 DBCSR| Multrec recursion limit                                              512
 DBCSR| Multiplication stack size                                           1000
 DBCSR| Maximum elements for images                                    UNLIMITED
 DBCSR| Multiplicative factor virtual images                                   1
 DBCSR| Multiplication size stacks                                             3
 DBCSR| Number of 3D layers                                               SINGLE
 DBCSR| Use MPI memory allocation                                              T
 DBCSR| Use RMA algorithm                                                      F
 DBCSR| Use Communication thread                                               T
 DBCSR| Communication thread load                                             87


  **** **** ******  **  PROGRAM STARTED AT               2019-08-11 19:34:42.812
 ***** ** ***  *** **   PROGRAM STARTED ON        cpn-u23-36.cbls.ccr.buffalo.ed
 **    ****   ******    PROGRAM STARTED BY                              pavankum
 ***** **    ** ** **   PROGRAM PROCESS ID                                455735
  **** **  *******  **  PROGRAM STARTED IN /projects/academic/mdupuis2/pavan/VAB
                                           _calculation/results_for_paper/8.Hema
                                           tite_dzv/gopt_fe41

 CP2K| version string:                                          CP2K version 6.1
 CP2K| source code revision number:                                    svn:18464
 CP2K| cp2kflags: libint fftw3 libxc parallel mpi3 scalapack libderiv_max_am1=5 
 CP2K|            libint_max_am=6
 CP2K| is freely available from                            https://www.cp2k.org/
 CP2K| Program compiled at                          Fri Nov 30 14:17:09 EST 2018
 CP2K| Program compiled on                       srv-p22-12.cbls.ccr.buffalo.edu
 CP2K| Program compiled for                                                local
 CP2K| Data directory path    /projects/academic/mdupuis2/pavan/cp2k/cp2k-6.1/da
 CP2K| Input file name                                                 input.inp

 GLOBAL| Force Environment number                                              1
 GLOBAL| Basis set file name            /projects/academic/mdupuis2/pavan/BASIS_
 GLOBAL| Potential file name            /projects/academic/mdupuis2/pavan/POTENT
 GLOBAL| MM Potential file name                                     MM_POTENTIAL
 GLOBAL| Coordinate file name                                            opt.xyz
 GLOBAL| Method name                                                        CP2K
 GLOBAL| Project name                                                      p_fe_
 GLOBAL| Preferred FFT library                                             FFTW3
 GLOBAL| Preferred diagonalization lib.                                       SL
 GLOBAL| Run type                                                        GEO_OPT
 GLOBAL| All-to-all communication in single precision                          F
 GLOBAL| FFTs using library dependent lengths                                  T
 GLOBAL| Global print level                                               MEDIUM
 GLOBAL| Total number of message passing processes                           128
 GLOBAL| Number of threads for this process                                    1
 GLOBAL| This output is from process                                           0
 GLOBAL| CPU model name :  Intel(R) Xeon(R) Gold 6130 CPU @ 2.10GHz

 MEMORY| system memory details [Kb]
 MEMORY|                        rank 0           min           max       average
 MEMORY| MemTotal            196307064     196307064     196307064     196307064
 MEMORY| MemFree             182800200     172378876     182800200     178217276
 MEMORY| Buffers                456792        419836        473348        450687
 MEMORY| Cached                4233912       4233912      14596568       9355716
 MEMORY| Slab                   757184        686576        938616        804394
 MEMORY| SReclaimable           386068        326724        567708        437788
 MEMORY| MemLikelyFree       187876972     187876972     189422012     188461467


 *** Fundamental physical constants (SI units) ***

 *** Literature: B. J. Mohr and B. N. Taylor,
 ***             CODATA recommended values of the fundamental physical
 ***             constants: 2006, Web Version 5.1
 ***             http://physics.nist.gov/constants

 Speed of light in vacuum [m/s]                             2.99792458000000E+08
 Magnetic constant or permeability of vacuum [N/A**2]       1.25663706143592E-06
 Electric constant or permittivity of vacuum [F/m]          8.85418781762039E-12
 Planck constant (h) [J*s]                                  6.62606896000000E-34
 Planck constant (h-bar) [J*s]                              1.05457162825177E-34
 Elementary charge [C]                                      1.60217648700000E-19
 Electron mass [kg]                                         9.10938215000000E-31
 Electron g factor [ ]                                     -2.00231930436220E+00
 Proton mass [kg]                                           1.67262163700000E-27
 Fine-structure constant                                    7.29735253760000E-03
 Rydberg constant [1/m]                                     1.09737315685270E+07
 Avogadro constant [1/mol]                                  6.02214179000000E+23
 Boltzmann constant [J/K]                                   1.38065040000000E-23
 Atomic mass unit [kg]                                      1.66053878200000E-27
 Bohr radius [m]                                            5.29177208590000E-11

 *** Conversion factors ***

 [u] -> [a.u.]                                              1.82288848426455E+03
 [Angstrom] -> [Bohr] = [a.u.]                              1.88972613288564E+00
 [a.u.] = [Bohr] -> [Angstrom]                              5.29177208590000E-01
 [a.u.] -> [s]                                              2.41888432650478E-17
 [a.u.] -> [fs]                                             2.41888432650478E-02
 [a.u.] -> [J]                                              4.35974393937059E-18
 [a.u.] -> [N]                                              8.23872205491840E-08
 [a.u.] -> [K]                                              3.15774647902944E+05
 [a.u.] -> [kJ/mol]                                         2.62549961709828E+03
 [a.u.] -> [kcal/mol]                                       6.27509468713739E+02
 [a.u.] -> [Pa]                                             2.94210107994716E+13
 [a.u.] -> [bar]                                            2.94210107994716E+08
 [a.u.] -> [atm]                                            2.90362800883016E+08
 [a.u.] -> [eV]                                             2.72113838565563E+01
 [a.u.] -> [Hz]                                             6.57968392072181E+15
 [a.u.] -> [1/cm] (wave numbers)                            2.19474631370540E+05
 [a.u./Bohr**2] -> [1/cm]                                   5.14048714338585E+03
 

 CELL_TOP| Volume [angstrom^3]:                                         2491.262
 CELL_TOP| Vector a [angstrom    14.725     0.000     0.000    |a| =      14.725
 CELL_TOP| Vector b [angstrom    -7.362    12.752     0.000    |b| =      14.725
 CELL_TOP| Vector c [angstrom     0.000     0.000    13.267    |c| =      13.267
 CELL_TOP| Angle (b,c), alpha [degree]:                                   90.000
 CELL_TOP| Angle (a,c), beta  [degree]:                                   90.000
 CELL_TOP| Angle (a,b), gamma [degree]:                                  120.000
 CELL_TOP| Numerically orthorhombic:                                          NO

 CELL| Volume [angstrom^3]:                                             2491.262
 CELL| Vector a [angstrom]:      14.725     0.000     0.000    |a| =      14.725
 CELL| Vector b [angstrom]:      -7.362    12.752     0.000    |b| =      14.725
 CELL| Vector c [angstrom]:       0.000     0.000    13.267    |c| =      13.267
 CELL| Angle (b,c), alpha [degree]:                                       90.000
 CELL| Angle (a,c), beta  [degree]:                                       90.000
 CELL| Angle (a,b), gamma [degree]:                                      120.000
 CELL| Numerically orthorhombic:                                              NO

 CELL_REF| Volume [angstrom^3]:                                         2491.262
 CELL_REF| Vector a [angstrom    14.725     0.000     0.000    |a| =      14.725
 CELL_REF| Vector b [angstrom    -7.362    12.752     0.000    |b| =      14.725
 CELL_REF| Vector c [angstrom     0.000     0.000    13.267    |c| =      13.267
 CELL_REF| Angle (b,c), alpha [degree]:                                   90.000
 CELL_REF| Angle (a,c), beta  [degree]:                                   90.000
 CELL_REF| Angle (a,b), gamma [degree]:                                  120.000
 CELL_REF| Numerically orthorhombic:                                          NO

 *******************************************************************************
 *******************************************************************************
 **                                                                           **
 **     #####                         ##              ##                      **
 **    ##   ##            ##          ##              ##                      **
 **   ##     ##                       ##            ######                    **
 **   ##     ##  ##   ##  ##   #####  ##  ##   ####   ##    #####    #####    **
 **   ##     ##  ##   ##  ##  ##      ## ##   ##      ##   ##   ##  ##   ##   **
 **   ##  ## ##  ##   ##  ##  ##      ####     ###    ##   ######   ######    **
 **    ##  ###   ##   ##  ##  ##      ## ##      ##   ##   ##       ##        **
 **     #######   #####   ##   #####  ##  ##  ####    ##    #####   ##        **
 **           ##                                                    ##        **
 **                                                                           **
 **                                                ... make the atoms dance   **
 **                                                                           **
 **            Copyright (C) by CP2K developers group (2000 - 2018)           **
 **                                                                           **
 *******************************************************************************

 DFT| Spin unrestricted (spin-polarized) Kohn-Sham calculation               UKS
 DFT| Multiplicity                                                             2
 DFT| Number of spin states                                                    2
 DFT| Charge                                                                  -1
 DFT| Self-interaction correction (SIC)                                       NO
 DFT| Cutoffs: density                                              1.000000E-10
 DFT|          gradient                                             1.000000E-10
 DFT|          tau                                                  1.000000E-10
 DFT|          cutoff_smoothing_range                               0.000000E+00
 DFT| XC density smoothing                                                  NONE
 DFT| XC derivatives                                                          PW

 DFT+U| Method                                                          MULLIKEN
 DFT+U| Check atomic kind information for details
 FUNCTIONAL| ROUTINE=NEW
 FUNCTIONAL| BECKE88:
 FUNCTIONAL| A. Becke, Phys. Rev. A 38, 3098 (1988) {LSD version}               
 FUNCTIONAL| LYP:
 FUNCTIONAL| C. Lee, W. Yang, R.G. Parr, Phys. Rev. B, 37, 785 (1988) {LSD versi
 FUNCTIONAL| on}                                                                

 QS| Method:                                                                 GPW
 QS| Density plane wave grid type                        NON-SPHERICAL FULLSPACE
 QS| Number of grid levels:                                                   10
 QS| Density cutoff [a.u.]:                                                325.0
 QS| Multi grid cutoff [a.u.]: 1) grid level                               325.0
 QS|                           2) grid level                               108.3
 QS|                           3) grid level                                36.1
 QS|                           4) grid level                                12.0
 QS|                           5) grid level                                 4.0
 QS|                           6) grid level                                 1.3
 QS|                           7) grid level                                 0.4
 QS|                           8) grid level                                 0.1
 QS|                           9) grid level                                 0.0
 QS|                          10) grid level                                 0.0
 QS| Grid level progression factor:                                          3.0
 QS| Relative density cutoff [a.u.]:                                        30.0
 QS| Consistent realspace mapping and integration 
 QS| Interaction thresholds: eps_pgf_orb:                                1.0E-06
 QS|                         eps_filter_matrix:                          0.0E+00
 QS|                         eps_core_charge:                            1.0E-14
 QS|                         eps_rho_gspace:                             1.0E-12
 QS|                         eps_rho_rspace:                             1.0E-12
 QS|                         eps_gvg_rspace:                             1.0E-06
 QS|                         eps_ppl:                                    1.0E-02
 QS|                         eps_ppnl:                                   1.0E-08


 ATOMIC KIND INFORMATION

  1. Atomic kind: Fe_three_up                           Number of atoms:      54

     Orbital Basis Set                                                   mod-DZV

       Number of orbital shell sets:                                           1
       Number of orbital shells:                                               7
       Number of primitive Cartesian functions:                                6
       Number of Cartesian basis functions:                                   21
       Number of spherical basis functions:                                   19
       Norm type:                                                              2

       Normalised Cartesian orbitals:

                        Set   Shell   Orbital            Exponent    Coefficient

                          1       1    2s                8.424366      -0.545589
                                                         4.825220      -0.832336
                                                         2.198939       0.958990
                                                         0.891661       0.416271
                                                         0.316231       0.012631
                                                         0.103474      -0.013505

                          1       2    3s                8.424366      -0.106056
                                                         4.825220      -0.104587
                                                         2.198939       0.052318
                                                         0.891661      -0.169042
                                                         0.316231       0.061854
                                                         0.103474       0.122891

                          1       3    4s                8.424366      -0.333477
                                                         4.825220      -0.289267
                                                         2.198939      -0.125861
                                                         0.891661      -1.004000
                                                         0.316231       0.780774
                                                         0.103474      -0.187846

                          1       4    3px               8.424366      -1.658234
                                                         4.825220       1.618912
                                                         2.198939       1.969078
                                                         0.891661       0.523780
                                                         0.316231       0.024574
                                                         0.103474      -0.000798
                          1       4    3py               8.424366      -1.658234
                                                         4.825220       1.618912
                                                         2.198939       1.969078
                                                         0.891661       0.523780
                                                         0.316231       0.024574
                                                         0.103474      -0.000798
                          1       4    3pz               8.424366      -1.658234
                                                         4.825220       1.618912
                                                         2.198939       1.969078
                                                         0.891661       0.523780
                                                         0.316231       0.024574
                                                         0.103474      -0.000798

                          1       5    4px               8.424366      -0.105249
                                                         4.825220      -0.126123
                                                         2.198939      -0.349657
                                                         0.891661      -0.133470
                                                         0.316231       0.170554
                                                         0.103474       0.054381
                          1       5    4py               8.424366      -0.105249
                                                         4.825220      -0.126123
                                                         2.198939      -0.349657
                                                         0.891661      -0.133470
                                                         0.316231       0.170554
                                                         0.103474       0.054381
                          1       5    4pz               8.424366      -0.105249
                                                         4.825220      -0.126123
                                                         2.198939      -0.349657
                                                         0.891661      -0.133470
                                                         0.316231       0.170554
                                                         0.103474       0.054381

                          1       6    4dx2              8.424366       7.918298
                                                         4.825220       5.112663
                                                         2.198939       2.118663
                                                         0.891661       0.465004
                                                         0.316231       0.065856
                                                         0.103474       0.002769
                          1       6    4dxy              8.424366      13.714895
                                                         4.825220       8.855393
                                                         2.198939       3.669632
                                                         0.891661       0.805411
                                                         0.316231       0.114066
                                                         0.103474       0.004796
                          1       6    4dxz              8.424366      13.714895
                                                         4.825220       8.855393
                                                         2.198939       3.669632
                                                         0.891661       0.805411
                                                         0.316231       0.114066
                                                         0.103474       0.004796
                          1       6    4dy2              8.424366       7.918298
                                                         4.825220       5.112663
                                                         2.198939       2.118663
                                                         0.891661       0.465004
                                                         0.316231       0.065856
                                                         0.103474       0.002769
                          1       6    4dyz              8.424366      13.714895
                                                         4.825220       8.855393
                                                         2.198939       3.669632
                                                         0.891661       0.805411
                                                         0.316231       0.114066
                                                         0.103474       0.004796
                          1       6    4dz2              8.424366       7.918298
                                                         4.825220       5.112663
                                                         2.198939       2.118663
                                                         0.891661       0.465004
                                                         0.316231       0.065856
                                                         0.103474       0.002769

                          1       7    5dx2              8.424366      -4.223614
                                                         4.825220      -1.970584
                                                         2.198939      -1.543490
                                                         0.891661      -0.041381
                                                         0.316231       0.082821
                                                         0.103474       0.021964
                          1       7    5dxy              8.424366      -7.315513
                                                         4.825220      -3.413151
                                                         2.198939      -2.673404
                                                         0.891661      -0.071673
                                                         0.316231       0.143450
                                                         0.103474       0.038042
                          1       7    5dxz              8.424366      -7.315513
                                                         4.825220      -3.413151
                                                         2.198939      -2.673404
                                                         0.891661      -0.071673
                                                         0.316231       0.143450
                                                         0.103474       0.038042
                          1       7    5dy2              8.424366      -4.223614
                                                         4.825220      -1.970584
                                                         2.198939      -1.543490
                                                         0.891661      -0.041381
                                                         0.316231       0.082821
                                                         0.103474       0.021964
                          1       7    5dyz              8.424366      -7.315513
                                                         4.825220      -3.413151
                                                         2.198939      -2.673404
                                                         0.891661      -0.071673
                                                         0.316231       0.143450
                                                         0.103474       0.038042
                          1       7    5dz2              8.424366      -4.223614
                                                         4.825220      -1.970584
                                                         2.198939      -1.543490
                                                         0.891661      -0.041381
                                                         0.316231       0.082821
                                                         0.103474       0.021964

     GTH Potential information for                                  GTH-BLYP-q16

       Description:                       Goedecker-Teter-Hutter pseudopotential
                                           Goedecker et al., PRB 54, 1703 (1996)
                                          Hartwigsen et al., PRB 58, 3641 (1998)
                                                      Krack, TCA 114, 145 (2005)

       Gaussian exponent of the core charge distribution:               3.858025
       Electronic configuration (s p d ...):                           4   6   6

       Parameters of the local part of the GTH pseudopotential:

                          rloc        C1          C2          C3          C4
                        0.360000    7.011025   -0.222747

       Parameters of the non-local part of the GTH pseudopotential:

                   l      r(l)      h(i,j,l)

                   0    0.276205    0.611496    7.992357
                                    7.992357  -10.318089
                   1    0.247130   -8.710556    8.684169
                                    8.684169  -10.275248
                   2    0.223534  -12.411504

     A DFT+U correction is applied to atoms of this atomic kind:
       Angular quantum momentum number L:                                      2
       U(eff) = (U - J) value in [eV]:                                     6.000

  2. Atomic kind: Fe_three_down                         Number of atoms:      53

     Orbital Basis Set                                                   mod-DZV

       Number of orbital shell sets:                                           1
       Number of orbital shells:                                               7
       Number of primitive Cartesian functions:                                6
       Number of Cartesian basis functions:                                   21
       Number of spherical basis functions:                                   19
       Norm type:                                                              2

       Normalised Cartesian orbitals:

                        Set   Shell   Orbital            Exponent    Coefficient

                          1       1    2s                8.424366      -0.545589
                                                         4.825220      -0.832336
                                                         2.198939       0.958990
                                                         0.891661       0.416271
                                                         0.316231       0.012631
                                                         0.103474      -0.013505

                          1       2    3s                8.424366      -0.106056
                                                         4.825220      -0.104587
                                                         2.198939       0.052318
                                                         0.891661      -0.169042
                                                         0.316231       0.061854
                                                         0.103474       0.122891

                          1       3    4s                8.424366      -0.333477
                                                         4.825220      -0.289267
                                                         2.198939      -0.125861
                                                         0.891661      -1.004000
                                                         0.316231       0.780774
                                                         0.103474      -0.187846

                          1       4    3px               8.424366      -1.658234
                                                         4.825220       1.618912
                                                         2.198939       1.969078
                                                         0.891661       0.523780
                                                         0.316231       0.024574
                                                         0.103474      -0.000798
                          1       4    3py               8.424366      -1.658234
                                                         4.825220       1.618912
                                                         2.198939       1.969078
                                                         0.891661       0.523780
                                                         0.316231       0.024574
                                                         0.103474      -0.000798
                          1       4    3pz               8.424366      -1.658234
                                                         4.825220       1.618912
                                                         2.198939       1.969078
                                                         0.891661       0.523780
                                                         0.316231       0.024574
                                                         0.103474      -0.000798

                          1       5    4px               8.424366      -0.105249
                                                         4.825220      -0.126123
                                                         2.198939      -0.349657
                                                         0.891661      -0.133470
                                                         0.316231       0.170554
                                                         0.103474       0.054381
                          1       5    4py               8.424366      -0.105249
                                                         4.825220      -0.126123
                                                         2.198939      -0.349657
                                                         0.891661      -0.133470
                                                         0.316231       0.170554
                                                         0.103474       0.054381
                          1       5    4pz               8.424366      -0.105249
                                                         4.825220      -0.126123
                                                         2.198939      -0.349657
                                                         0.891661      -0.133470
                                                         0.316231       0.170554
                                                         0.103474       0.054381

                          1       6    4dx2              8.424366       7.918298
                                                         4.825220       5.112663
                                                         2.198939       2.118663
                                                         0.891661       0.465004
                                                         0.316231       0.065856
                                                         0.103474       0.002769
                          1       6    4dxy              8.424366      13.714895
                                                         4.825220       8.855393
                                                         2.198939       3.669632
                                                         0.891661       0.805411
                                                         0.316231       0.114066
                                                         0.103474       0.004796
                          1       6    4dxz              8.424366      13.714895
                                                         4.825220       8.855393
                                                         2.198939       3.669632
                                                         0.891661       0.805411
                                                         0.316231       0.114066
                                                         0.103474       0.004796
                          1       6    4dy2              8.424366       7.918298
                                                         4.825220       5.112663
                                                         2.198939       2.118663
                                                         0.891661       0.465004
                                                         0.316231       0.065856
                                                         0.103474       0.002769
                          1       6    4dyz              8.424366      13.714895
                                                         4.825220       8.855393
                                                         2.198939       3.669632
                                                         0.891661       0.805411
                                                         0.316231       0.114066
                                                         0.103474       0.004796
                          1       6    4dz2              8.424366       7.918298
                                                         4.825220       5.112663
                                                         2.198939       2.118663
                                                         0.891661       0.465004
                                                         0.316231       0.065856
                                                         0.103474       0.002769

                          1       7    5dx2              8.424366      -4.223614
                                                         4.825220      -1.970584
                                                         2.198939      -1.543490
                                                         0.891661      -0.041381
                                                         0.316231       0.082821
                                                         0.103474       0.021964
                          1       7    5dxy              8.424366      -7.315513
                                                         4.825220      -3.413151
                                                         2.198939      -2.673404
                                                         0.891661      -0.071673
                                                         0.316231       0.143450
                                                         0.103474       0.038042
                          1       7    5dxz              8.424366      -7.315513
                                                         4.825220      -3.413151
                                                         2.198939      -2.673404
                                                         0.891661      -0.071673
                                                         0.316231       0.143450
                                                         0.103474       0.038042
                          1       7    5dy2              8.424366      -4.223614
                                                         4.825220      -1.970584
                                                         2.198939      -1.543490
                                                         0.891661      -0.041381
                                                         0.316231       0.082821
                                                         0.103474       0.021964
                          1       7    5dyz              8.424366      -7.315513
                                                         4.825220      -3.413151
                                                         2.198939      -2.673404
                                                         0.891661      -0.071673
                                                         0.316231       0.143450
                                                         0.103474       0.038042
                          1       7    5dz2              8.424366      -4.223614
                                                         4.825220      -1.970584
                                                         2.198939      -1.543490
                                                         0.891661      -0.041381
                                                         0.316231       0.082821
                                                         0.103474       0.021964

     GTH Potential information for                                  GTH-BLYP-q16

       Description:                       Goedecker-Teter-Hutter pseudopotential
                                           Goedecker et al., PRB 54, 1703 (1996)
                                          Hartwigsen et al., PRB 58, 3641 (1998)
                                                      Krack, TCA 114, 145 (2005)

       Gaussian exponent of the core charge distribution:               3.858025
       Electronic configuration (s p d ...):                           4   6   6

       Parameters of the local part of the GTH pseudopotential:

                          rloc        C1          C2          C3          C4
                        0.360000    7.011025   -0.222747

       Parameters of the non-local part of the GTH pseudopotential:

                   l      r(l)      h(i,j,l)

                   0    0.276205    0.611496    7.992357
                                    7.992357  -10.318089
                   1    0.247130   -8.710556    8.684169
                                    8.684169  -10.275248
                   2    0.223534  -12.411504

     A DFT+U correction is applied to atoms of this atomic kind:
       Angular quantum momentum number L:                                      2
       U(eff) = (U - J) value in [eV]:                                     6.000

  3. Atomic kind: Fe_two_down                           Number of atoms:       1

     Orbital Basis Set                                                   mod-DZV

       Number of orbital shell sets:                                           1
       Number of orbital shells:                                               7
       Number of primitive Cartesian functions:                                6
       Number of Cartesian basis functions:                                   21
       Number of spherical basis functions:                                   19
       Norm type:                                                              2

       Normalised Cartesian orbitals:

                        Set   Shell   Orbital            Exponent    Coefficient

                          1       1    2s                8.424366      -0.545589
                                                         4.825220      -0.832336
                                                         2.198939       0.958990
                                                         0.891661       0.416271
                                                         0.316231       0.012631
                                                         0.103474      -0.013505

                          1       2    3s                8.424366      -0.106056
                                                         4.825220      -0.104587
                                                         2.198939       0.052318
                                                         0.891661      -0.169042
                                                         0.316231       0.061854
                                                         0.103474       0.122891

                          1       3    4s                8.424366      -0.333477
                                                         4.825220      -0.289267
                                                         2.198939      -0.125861
                                                         0.891661      -1.004000
                                                         0.316231       0.780774
                                                         0.103474      -0.187846

                          1       4    3px               8.424366      -1.658234
                                                         4.825220       1.618912
                                                         2.198939       1.969078
                                                         0.891661       0.523780
                                                         0.316231       0.024574
                                                         0.103474      -0.000798
                          1       4    3py               8.424366      -1.658234
                                                         4.825220       1.618912
                                                         2.198939       1.969078
                                                         0.891661       0.523780
                                                         0.316231       0.024574
                                                         0.103474      -0.000798
                          1       4    3pz               8.424366      -1.658234
                                                         4.825220       1.618912
                                                         2.198939       1.969078
                                                         0.891661       0.523780
                                                         0.316231       0.024574
                                                         0.103474      -0.000798

                          1       5    4px               8.424366      -0.105249
                                                         4.825220      -0.126123
                                                         2.198939      -0.349657
                                                         0.891661      -0.133470
                                                         0.316231       0.170554
                                                         0.103474       0.054381
                          1       5    4py               8.424366      -0.105249
                                                         4.825220      -0.126123
                                                         2.198939      -0.349657
                                                         0.891661      -0.133470
                                                         0.316231       0.170554
                                                         0.103474       0.054381
                          1       5    4pz               8.424366      -0.105249
                                                         4.825220      -0.126123
                                                         2.198939      -0.349657
                                                         0.891661      -0.133470
                                                         0.316231       0.170554
                                                         0.103474       0.054381

                          1       6    4dx2              8.424366       7.918298
                                                         4.825220       5.112663
                                                         2.198939       2.118663
                                                         0.891661       0.465004
                                                         0.316231       0.065856
                                                         0.103474       0.002769
                          1       6    4dxy              8.424366      13.714895
                                                         4.825220       8.855393
                                                         2.198939       3.669632
                                                         0.891661       0.805411
                                                         0.316231       0.114066
                                                         0.103474       0.004796
                          1       6    4dxz              8.424366      13.714895
                                                         4.825220       8.855393
                                                         2.198939       3.669632
                                                         0.891661       0.805411
                                                         0.316231       0.114066
                                                         0.103474       0.004796
                          1       6    4dy2              8.424366       7.918298
                                                         4.825220       5.112663
                                                         2.198939       2.118663
                                                         0.891661       0.465004
                                                         0.316231       0.065856
                                                         0.103474       0.002769
                          1       6    4dyz              8.424366      13.714895
                                                         4.825220       8.855393
                                                         2.198939       3.669632
                                                         0.891661       0.805411
                                                         0.316231       0.114066
                                                         0.103474       0.004796
                          1       6    4dz2              8.424366       7.918298
                                                         4.825220       5.112663
                                                         2.198939       2.118663
                                                         0.891661       0.465004
                                                         0.316231       0.065856
                                                         0.103474       0.002769

                          1       7    5dx2              8.424366      -4.223614
                                                         4.825220      -1.970584
                                                         2.198939      -1.543490
                                                         0.891661      -0.041381
                                                         0.316231       0.082821
                                                         0.103474       0.021964
                          1       7    5dxy              8.424366      -7.315513
                                                         4.825220      -3.413151
                                                         2.198939      -2.673404
                                                         0.891661      -0.071673
                                                         0.316231       0.143450
                                                         0.103474       0.038042
                          1       7    5dxz              8.424366      -7.315513
                                                         4.825220      -3.413151
                                                         2.198939      -2.673404
                                                         0.891661      -0.071673
                                                         0.316231       0.143450
                                                         0.103474       0.038042
                          1       7    5dy2              8.424366      -4.223614
                                                         4.825220      -1.970584
                                                         2.198939      -1.543490
                                                         0.891661      -0.041381
                                                         0.316231       0.082821
                                                         0.103474       0.021964
                          1       7    5dyz              8.424366      -7.315513
                                                         4.825220      -3.413151
                                                         2.198939      -2.673404
                                                         0.891661      -0.071673
                                                         0.316231       0.143450
                                                         0.103474       0.038042
                          1       7    5dz2              8.424366      -4.223614
                                                         4.825220      -1.970584
                                                         2.198939      -1.543490
                                                         0.891661      -0.041381
                                                         0.316231       0.082821
                                                         0.103474       0.021964

     GTH Potential information for                                  GTH-BLYP-q16

       Description:                       Goedecker-Teter-Hutter pseudopotential
                                           Goedecker et al., PRB 54, 1703 (1996)
                                          Hartwigsen et al., PRB 58, 3641 (1998)
                                                      Krack, TCA 114, 145 (2005)

       Gaussian exponent of the core charge distribution:               3.858025
       Electronic configuration (s p d ...):                           4   6   6

       Parameters of the local part of the GTH pseudopotential:

                          rloc        C1          C2          C3          C4
                        0.360000    7.011025   -0.222747

       Parameters of the non-local part of the GTH pseudopotential:

                   l      r(l)      h(i,j,l)

                   0    0.276205    0.611496    7.992357
                                    7.992357  -10.318089
                   1    0.247130   -8.710556    8.684169
                                    8.684169  -10.275248
                   2    0.223534  -12.411504

     A DFT+U correction is applied to atoms of this atomic kind:
       Angular quantum momentum number L:                                      2
       U(eff) = (U - J) value in [eV]:                                     6.000

  4. Atomic kind: O                                     Number of atoms:     162

     Orbital Basis Set                                                   mod-DZV

       Number of orbital shell sets:                                           1
       Number of orbital shells:                                               4
       Number of primitive Cartesian functions:                                5
       Number of Cartesian basis functions:                                    8
       Number of spherical basis functions:                                    8
       Norm type:                                                              2

       Normalised Cartesian orbitals:

                        Set   Shell   Orbital            Exponent    Coefficient

                          1       1    2s               10.389228       0.396646
                                                         3.849621       0.208811
                                                         1.388401      -0.301641
                                                         0.496955      -0.274061
                                                         0.162492      -0.033677

                          1       2    3s               10.389228       0.303673
                                                         3.849621       0.240943
                                                         1.388401      -0.313066
                                                         0.496955      -0.043055
                                                         0.162492       0.213991

                          1       3    3px              10.389228      -1.530415
                                                         3.849621      -1.371928
                                                         1.388401      -0.761951
                                                         0.496955      -0.253695
                                                         0.162492      -0.035541
                          1       3    3py              10.389228      -1.530415
                                                         3.849621      -1.371928
                                                         1.388401      -0.761951
                                                         0.496955      -0.253695
                                                         0.162492      -0.035541
                          1       3    3pz              10.389228      -1.530415
                                                         3.849621      -1.371928
                                                         1.388401      -0.761951
                                                         0.496955      -0.253695
                                                         0.162492      -0.035541

                          1       4    4px              10.389228      -0.565392
                                                         3.849621      -0.038231
                                                         1.388401      -0.382373
                                                         0.496955       0.179070
                                                         0.162492       0.122714
                          1       4    4py              10.389228      -0.565392
                                                         3.849621      -0.038231
                                                         1.388401      -0.382373
                                                         0.496955       0.179070
                                                         0.162492       0.122714
                          1       4    4pz              10.389228      -0.565392
                                                         3.849621      -0.038231
                                                         1.388401      -0.382373
                                                         0.496955       0.179070
                                                         0.162492       0.122714

     GTH Potential information for                                   GTH-BLYP-q6

       Description:                       Goedecker-Teter-Hutter pseudopotential
                                           Goedecker et al., PRB 54, 1703 (1996)
                                          Hartwigsen et al., PRB 58, 3641 (1998)
                                                      Krack, TCA 114, 145 (2005)

       Gaussian exponent of the core charge distribution:               8.438331
       Electronic configuration (s p d ...):                               2   4

       Parameters of the local part of the GTH pseudopotential:

                          rloc        C1          C2          C3          C4
                        0.243420  -16.991892    2.566142

       Parameters of the non-local part of the GTH pseudopotential:

                   l      r(l)      h(i,j,l)

                   0    0.220831   18.388851
                   1    0.217201


 MOLECULE KIND INFORMATION


 All atoms are their own molecule, skipping detailed information


 TOTAL NUMBERS AND MAXIMUM NUMBERS

  Total number of            - Atomic kinds:                                   4
                             - Atoms:                                        270
                             - Shell sets:                                   270
                             - Shells:                                      1404
                             - Primitive Cartesian functions:               1458
                             - Cartesian basis functions:                   3564
                             - Spherical basis functions:                   3348

  Maximum angular momentum of- Orbital basis functions:                        2
                             - Local part of the GTH pseudopotential:          2
                             - Non-local part of the GTH pseudopotential:      3


 MODULE QUICKSTEP:  ATOMIC COORDINATES IN angstrom

  Atom  Kind  Element       X           Y           Z          Z(eff)       Mass

       1     1 Fe  26    0.032795    2.927987   13.770278     16.00      55.8450
       2     1 Fe  26    2.486088    4.345138    4.925824     16.00      55.8450
       3     1 Fe  26    2.486092    1.511715    9.347574     16.00      55.8450
       4     2 Fe  26    2.486244    4.345201    2.087934     16.00      55.8450
       5     2 Fe  26    2.486472    1.511872    6.509691     16.00      55.8450
       6     2 Fe  26    0.032219    2.928923   10.932940     16.00      55.8450
       7     1 Fe  26    0.032467    2.928554    4.298945     16.00      55.8450
       8     1 Fe  26    2.485930    4.345263    8.721050     16.00      55.8450
       9     1 Fe  26    2.487150    1.511185   13.143867     16.00      55.8450
      10     2 Fe  26    2.486710    1.511708    2.714075     16.00      55.8450
      11     2 Fe  26    0.032333    2.928726    7.136781     16.00      55.8450
      12     2 Fe  26    2.486840    4.345350   11.559115     16.00      55.8450
      13     1 Fe  26    4.940615    2.928797   13.770069     16.00      55.8450
      14     1 Fe  26    7.394251    4.345316    4.925607     16.00      55.8450
      15     1 Fe  26    7.394451    1.511362    9.347925     16.00      55.8450
      16     2 Fe  26    7.394849    4.346329    2.088337     16.00      55.8450
      17     2 Fe  26    7.394997    1.511590    6.509716     16.00      55.8450
      18     2 Fe  26    4.940721    2.928827   10.932470     16.00      55.8450
      19     1 Fe  26    4.940534    2.928398    4.298844     16.00      55.8450
      20     1 Fe  26    7.394904    4.345648    8.721163     16.00      55.8450
      21     1 Fe  26    7.395204    1.511537   13.143628     16.00      55.8450
      22     2 Fe  26    7.394480    1.512271    2.713558     16.00      55.8450
      23     2 Fe  26    4.940576    2.928877    7.137177     16.00      55.8450
      24     2 Fe  26    7.395327    4.344764   11.559994     16.00      55.8450
      25     1 Fe  26    9.848766    2.928438   13.770425     16.00      55.8450
      26     1 Fe  26   12.303269    4.345312    4.925910     16.00      55.8450
      27     1 Fe  26   12.302778    1.512139    9.347170     16.00      55.8450
      28     2 Fe  26   12.303006    4.345614    2.088447     16.00      55.8450
      29     2 Fe  26   12.302658    1.511601    6.509532     16.00      55.8450
      30     2 Fe  26    9.849129    2.928784   10.930763     16.00      55.8450
      31     1 Fe  26    9.848440    2.927937    4.297859     16.00      55.8450
      32     1 Fe  26   12.302601    4.345261    8.720751     16.00      55.8450
      33     1 Fe  26   12.302673    1.511479   13.144009     16.00      55.8450
      34     2 Fe  26   12.303293    1.511825    2.714873     16.00      55.8450
      35     2 Fe  26    9.848603    2.928697    7.136938     16.00      55.8450
      36     2 Fe  26   12.303193    4.345482   11.560005     16.00      55.8450
      37     1 Fe  26   -2.421567    7.178851   13.770257     16.00      55.8450
      38     1 Fe  26    0.032108    8.595711    4.925823     16.00      55.8450
      39     1 Fe  26    0.032454    5.762337    9.347960     16.00      55.8450
      40     2 Fe  26    0.031863    8.596471    2.088070     16.00      55.8450
      41     2 Fe  26    0.032047    5.762566    6.510121     16.00      55.8450
      42     2 Fe  26   -2.422043    7.178828   10.931371     16.00      55.8450
      43     1 Fe  26   -2.422389    7.179653    4.298956     16.00      55.8450
      44     1 Fe  26    0.031938    8.596111    8.721284     16.00      55.8450
      45     1 Fe  26    0.033005    5.762721   13.143787     16.00      55.8450
      46     2 Fe  26    0.032458    5.762103    2.714349     16.00      55.8450
      47     2 Fe  26   -2.421554    7.179631    7.136992     16.00      55.8450
      48     2 Fe  26    0.031764    8.595877   11.559623     16.00      55.8450
      49     1 Fe  26    2.486484    7.179227   13.770045     16.00      55.8450
      50     1 Fe  26    4.941066    8.595604    4.925743     16.00      55.8450
      51     1 Fe  26    4.941165    5.761657    9.348253     16.00      55.8450
      52     2 Fe  26    4.939978    8.595833    2.088696     16.00      55.8450
      53     2 Fe  26    4.940035    5.762376    6.509608     16.00      55.8450
      54     2 Fe  26    2.486276    7.179530   10.932124     16.00      55.8450
      55     1 Fe  26    2.486131    7.179448    4.298553     16.00      55.8450
      56     1 Fe  26    4.940389    8.596453    8.721338     16.00      55.8450
      57     1 Fe  26    4.940663    5.762821   13.144514     16.00      55.8450
      58     2 Fe  26    4.940575    5.761967    2.713851     16.00      55.8450
      59     3 Fe  26    2.487420    7.179205    7.137058     16.00      55.8450
      60     2 Fe  26    4.940991    8.596196   11.559537     16.00      55.8450
      61     1 Fe  26    7.395351    7.179737   13.769727     16.00      55.8450
      62     1 Fe  26    9.849568    8.596297    4.924968     16.00      55.8450
      63     1 Fe  26    9.848699    5.762481    9.347587     16.00      55.8450
      64     2 Fe  26    9.848434    8.595608    2.087755     16.00      55.8450
      65     2 Fe  26    9.848681    5.761964    6.508982     16.00      55.8450
      66     2 Fe  26    7.394126    7.179583   10.931288     16.00      55.8450
      67     1 Fe  26    7.395361    7.179188    4.298508     16.00      55.8450
      68     1 Fe  26    9.847751    8.596157    8.721136     16.00      55.8450
      69     1 Fe  26    9.848330    5.763297   13.144182     16.00      55.8450
      70     2 Fe  26    9.849372    5.761445    2.714008     16.00      55.8450
      71     2 Fe  26    7.394636    7.179215    7.137140     16.00      55.8450
      72     2 Fe  26    9.849105    8.597245   11.559997     16.00      55.8450
      73     1 Fe  26   -4.875589   11.429518   13.771247     16.00      55.8450
      74     1 Fe  26   -2.422282   12.847017    4.925600     16.00      55.8450
      75     1 Fe  26   -2.422140   10.013236    9.347821     16.00      55.8450
      76     2 Fe  26   -2.421324   12.846657    2.088396     16.00      55.8450
      77     2 Fe  26   -2.422349   10.013476    6.509294     16.00      55.8450
      78     2 Fe  26   -4.875780   11.430159   10.932990     16.00      55.8450
      79     1 Fe  26   -4.876524   11.430076    4.298762     16.00      55.8450
      80     1 Fe  26   -2.421941   12.846811    8.721616     16.00      55.8450
      81     1 Fe  26   -2.421712   10.013118   13.143611     16.00      55.8450
      82     2 Fe  26   -2.421911   10.013072    2.714428     16.00      55.8450
      83     2 Fe  26   -4.875721   11.430495    7.137529     16.00      55.8450
      84     2 Fe  26   -2.422066   12.846438   11.559448     16.00      55.8450
      85     1 Fe  26    0.032024   11.429970   13.770050     16.00      55.8450
      86     1 Fe  26    2.486477   12.846776    4.925574     16.00      55.8450
      87     1 Fe  26    2.486346   10.013276    9.347928     16.00      55.8450
      88     2 Fe  26    2.486475   12.847189    2.086984     16.00      55.8450
      89     2 Fe  26    2.485935   10.013082    6.509728     16.00      55.8450
      90     2 Fe  26    0.032710   11.429958   10.932823     16.00      55.8450
      91     1 Fe  26    0.032210   11.429771    4.298286     16.00      55.8450
      92     1 Fe  26    2.486287   12.846875    8.721393     16.00      55.8450
      93     1 Fe  26    2.486880   10.012809   13.143440     16.00      55.8450
      94     2 Fe  26    2.486119   10.012977    2.713955     16.00      55.8450
      95     2 Fe  26    0.032268   11.429660    7.137320     16.00      55.8450
      96     2 Fe  26    2.486365   12.846343   11.560043     16.00      55.8450
      97     1 Fe  26    4.941325   11.429184   13.771296     16.00      55.8450
      98     1 Fe  26    7.394670   12.846674    4.925671     16.00      55.8450
      99     1 Fe  26    7.395254   10.013581    9.347741     16.00      55.8450
     100     2 Fe  26    7.394587   12.847152    2.087646     16.00      55.8450
     101     2 Fe  26    7.394027   10.012606    6.509134     16.00      55.8450
     102     2 Fe  26    4.941147   11.429813   10.931795     16.00      55.8450
     103     1 Fe  26    4.940604   11.430220    4.298153     16.00      55.8450
     104     1 Fe  26    7.394049   12.847222    8.721502     16.00      55.8450
     105     1 Fe  26    7.394677   10.013254   13.143415     16.00      55.8450
     106     2 Fe  26    7.394826   10.012957    2.714228     16.00      55.8450
     107     2 Fe  26    4.940727   11.429777    7.137351     16.00      55.8450
     108     2 Fe  26    7.394914   12.846797   11.559186     16.00      55.8450
     109     4 O    8   -0.908778    4.345444    3.507416      6.00      15.9994
     110     4 O    8    3.999669    1.511204    7.928653      6.00      15.9994
     111     4 O    8    1.546083    2.928007   12.351078      6.00      15.9994
     112     4 O    8    4.185166    1.405490    3.505667      6.00      15.9994
     113     4 O    8    1.730744    2.822163    7.928354      6.00      15.9994
     114     4 O    8   -0.723195    4.239611   12.351544      6.00      15.9994
     115     4 O    8    1.729199    3.034935    3.505807      6.00      15.9994
     116     4 O    8   -0.724413    4.451628    7.929400      6.00      15.9994
     117     4 O    8    4.183688    1.618467   12.350665      6.00      15.9994
     118     4 O    8    0.973703    1.510978   14.562578      6.00      15.9994
     119     4 O    8    3.427240    2.928013    5.717415      6.00      15.9994
     120     4 O    8    0.973498    4.344900   10.139909      6.00      15.9994
     121     4 O    8    0.788937    4.451963   14.562474      6.00      15.9994
     122     4 O    8    0.789177    1.618367    5.717756      6.00      15.9994
     123     4 O    8    3.243029    3.034883   10.139864      6.00      15.9994
     124     4 O    8    3.242731    2.822391   14.562390      6.00      15.9994
     125     4 O    8    0.788588    4.239679    5.717835      6.00      15.9994
     126     4 O    8    0.788226    1.405788   10.139914      6.00      15.9994
     127     4 O    8    3.999654    4.345007    3.506473      6.00      15.9994
     128     4 O    8    8.907683    1.511612    7.928919      6.00      15.9994
     129     4 O    8    6.453770    2.928252   12.352117      6.00      15.9994
     130     4 O    8    9.092967    1.405119    3.505404      6.00      15.9994
     131     4 O    8    6.638722    2.821854    7.928813      6.00      15.9994
     132     4 O    8    4.184813    4.239725   12.351116      6.00      15.9994
     133     4 O    8    6.637279    3.034621    3.506244      6.00      15.9994
     134     4 O    8    4.184002    4.451755    7.929742      6.00      15.9994
     135     4 O    8    9.092331    1.618277   12.350873      6.00      15.9994
     136     4 O    8    5.881605    1.511215   14.562229      6.00      15.9994
     137     4 O    8    8.335406    2.927930    5.717214      6.00      15.9994
     138     4 O    8    5.882199    4.344716   10.140540      6.00      15.9994
     139     4 O    8    5.697533    4.451355   14.563442      6.00      15.9994
     140     4 O    8    5.696961    1.618425    5.718346      6.00      15.9994
     141     4 O    8    8.150674    3.034867   10.140429      6.00      15.9994
     142     4 O    8    8.150818    2.822985   14.562326      6.00      15.9994
     143     4 O    8    5.697016    4.239542    5.717637      6.00      15.9994
     144     4 O    8    5.696725    1.405352   10.140169      6.00      15.9994
     145     4 O    8    8.907943    4.345115    3.506756      6.00      15.9994
     146     4 O    8   13.816332    1.511565    7.928599      6.00      15.9994
     147     4 O    8   11.361459    2.928487   12.352004      6.00      15.9994
     148     4 O    8   14.001744    1.405610    3.505982      6.00      15.9994
     149     4 O    8   11.547112    2.822073    7.927989      6.00      15.9994
     150     4 O    8    9.093760    4.239234   12.351197      6.00      15.9994
     151     4 O    8   11.545693    3.034930    3.506401      6.00      15.9994
     152     4 O    8    9.092259    4.451660    7.929302      6.00      15.9994
     153     4 O    8   14.000106    1.618285   12.351052      6.00      15.9994
     154     4 O    8   10.790525    1.511723   14.562692      6.00      15.9994
     155     4 O    8   13.244651    2.927600    5.717177      6.00      15.9994
     156     4 O    8   10.790682    4.345104   10.140074      6.00      15.9994
     157     4 O    8   10.605655    4.452058   14.562298      6.00      15.9994
     158     4 O    8   10.605310    1.618373    5.718039      6.00      15.9994
     159     4 O    8   13.058808    3.034535   10.141312      6.00      15.9994
     160     4 O    8   13.059470    2.822261   14.562853      6.00      15.9994
     161     4 O    8   10.605499    4.239289    5.717241      6.00      15.9994
     162     4 O    8   10.605721    1.405100   10.140329      6.00      15.9994
     163     4 O    8   -3.362727    8.596042    3.506807      6.00      15.9994
     164     4 O    8    1.545967    5.762097    7.928561      6.00      15.9994
     165     4 O    8   -0.908698    7.178883   12.351859      6.00      15.9994
     166     4 O    8    1.730962    5.656105    3.505321      6.00      15.9994
     167     4 O    8   -0.723883    7.072963    7.929112      6.00      15.9994
     168     4 O    8   -3.177119    8.489883   12.351101      6.00      15.9994
     169     4 O    8   -0.725289    7.285559    3.506330      6.00      15.9994
     170     4 O    8   -3.178477    8.702405    7.929445      6.00      15.9994
     171     4 O    8    1.729778    5.868860   12.350820      6.00      15.9994
     172     4 O    8   -1.480170    5.761480   14.562395      6.00      15.9994
     173     4 O    8    0.973536    7.178597    5.717459      6.00      15.9994
     174     4 O    8   -1.480603    8.595091   10.139273      6.00      15.9994
     175     4 O    8   -1.665363    8.702932   14.562795      6.00      15.9994
     176     4 O    8   -1.664654    5.869218    5.717534      6.00      15.9994
     177     4 O    8    0.788873    7.285545   10.140257      6.00      15.9994
     178     4 O    8    0.789173    7.073454   14.563254      6.00      15.9994
     179     4 O    8   -1.665327    8.489813    5.718303      6.00      15.9994
     180     4 O    8   -1.665313    5.655355   10.140109      6.00      15.9994
     181     4 O    8    1.545330    8.595542    3.505807      6.00      15.9994
     182     4 O    8    6.453701    5.761626    7.929024      6.00      15.9994
     183     4 O    8    3.999933    7.178543   12.350913      6.00      15.9994
     184     4 O    8    6.638915    5.656547    3.505791      6.00      15.9994
     185     4 O    8    4.184769    7.072779    7.929465      6.00      15.9994
     186     4 O    8    1.730293    8.489980   12.350765      6.00      15.9994
     187     4 O    8    4.183938    7.285664    3.506544      6.00      15.9994
     188     4 O    8    1.729335    8.702144    7.928831      6.00      15.9994
     189     4 O    8    6.638027    5.868556   12.351484      6.00      15.9994
     190     4 O    8    3.427492    5.761837   14.562647      6.00      15.9994
     191     4 O    8    5.881623    7.178349    5.717840      6.00      15.9994
     192     4 O    8    3.427488    8.595782   10.139681      6.00      15.9994
     193     4 O    8    3.243423    8.702733   14.562257      6.00      15.9994
     194     4 O    8    3.243278    5.868645    5.717387      6.00      15.9994
     195     4 O    8    5.697226    7.285344   10.140292      6.00      15.9994
     196     4 O    8    5.697105    7.073177   14.562937      6.00      15.9994
     197     4 O    8    3.242949    8.490334    5.717098      6.00      15.9994
     198     4 O    8    3.242873    5.656554   10.139261      6.00      15.9994
     199     4 O    8    6.454046    8.595741    3.506696      6.00      15.9994
     200     4 O    8   11.361977    5.762491    7.929334      6.00      15.9994
     201     4 O    8    8.907786    7.178400   12.350193      6.00      15.9994
     202     4 O    8   11.546866    5.655636    3.506682      6.00      15.9994
     203     4 O    8    9.092880    7.072841    7.927821      6.00      15.9994
     204     4 O    8    6.638547    8.489684   12.351968      6.00      15.9994
     205     4 O    8    9.091895    7.285549    3.505549      6.00      15.9994
     206     4 O    8    6.637865    8.702778    7.929403      6.00      15.9994
     207     4 O    8   11.545503    5.869242   12.351183      6.00      15.9994
     208     4 O    8    8.335295    5.761694   14.561946      6.00      15.9994
     209     4 O    8   10.790015    7.178732    5.717236      6.00      15.9994
     210     4 O    8    8.336451    8.595599   10.139864      6.00      15.9994
     211     4 O    8    8.152066    8.702523   14.562557      6.00      15.9994
     212     4 O    8    8.151677    5.868894    5.717392      6.00      15.9994
     213     4 O    8   10.604883    7.285736   10.140606      6.00      15.9994
     214     4 O    8   10.605513    7.072583   14.562872      6.00      15.9994
     215     4 O    8    8.151757    8.490022    5.717392      6.00      15.9994
     216     4 O    8    8.151392    5.655767   10.140472      6.00      15.9994
     217     4 O    8   -5.816959   12.845835    3.505700      6.00      15.9994
     218     4 O    8   -0.908788   10.012620    7.928780      6.00      15.9994
     219     4 O    8   -3.362846   11.429881   12.351531      6.00      15.9994
     220     4 O    8   -0.723630    9.906660    3.505748      6.00      15.9994
     221     4 O    8   -3.177810   11.323305    7.928916      6.00      15.9994
     222     4 O    8   -5.631503   12.740616   12.351427      6.00      15.9994
     223     4 O    8   -3.179003   11.536734    3.506082      6.00      15.9994
     224     4 O    8   -5.633083   12.953572    7.928969      6.00      15.9994
     225     4 O    8   -0.724976   10.118914   12.351407      6.00      15.9994
     226     4 O    8   -3.934566   10.011847   14.562342      6.00      15.9994
     227     4 O    8   -1.480480   11.429906    5.717589      6.00      15.9994
     228     4 O    8   -3.935099   12.845757   10.139249      6.00      15.9994
     229     4 O    8   -4.118996   12.953515   14.562958      6.00      15.9994
     230     4 O    8   -4.119348   10.120073    5.718001      6.00      15.9994
     231     4 O    8   -1.664437   11.536554   10.139739      6.00      15.9994
     232     4 O    8   -1.664787   11.323559   14.562999      6.00      15.9994
     233     4 O    8   -4.119770   12.740315    5.717626      6.00      15.9994
     234     4 O    8   -4.119520    9.906755   10.140613      6.00      15.9994
     235     4 O    8   -0.908506   12.846140    3.505661      6.00      15.9994
     236     4 O    8    3.999323   10.012287    7.928312      6.00      15.9994
     237     4 O    8    1.545406   11.429813   12.351981      6.00      15.9994
     238     4 O    8    4.184637    9.906796    3.505947      6.00      15.9994
     239     4 O    8    1.730571   11.323949    7.928247      6.00      15.9994
     240     4 O    8   -0.723505   12.740483   12.350561      6.00      15.9994
     241     4 O    8    1.729643   11.536475    3.506122      6.00      15.9994
     242     4 O    8   -0.725230   12.953107    7.928721      6.00      15.9994
     243     4 O    8    4.183353   10.119137   12.350506      6.00      15.9994
     244     4 O    8    0.973119   10.012412   14.562254      6.00      15.9994
     245     4 O    8    3.427463   11.429240    5.717423      6.00      15.9994
     246     4 O    8    0.973678   12.845836   10.139629      6.00      15.9994
     247     4 O    8    0.789480   12.953967   14.562328      6.00      15.9994
     248     4 O    8    0.788785   10.119416    5.717310      6.00      15.9994
     249     4 O    8    3.243542   11.536668   10.140007      6.00      15.9994
     250     4 O    8    3.242758   11.323691   14.562365      6.00      15.9994
     251     4 O    8    0.788507   12.740334    5.717091      6.00      15.9994
     252     4 O    8    0.788457    9.907036   10.139883      6.00      15.9994
     253     4 O    8    3.999228   12.846057    3.505543      6.00      15.9994
     254     4 O    8    8.907980   10.012446    7.928963      6.00      15.9994
     255     4 O    8    6.454146   11.429375   12.351175      6.00      15.9994
     256     4 O    8    9.092592    9.906202    3.506661      6.00      15.9994
     257     4 O    8    6.638844   11.323262    7.928546      6.00      15.9994
     258     4 O    8    4.185334   12.739356   12.351259      6.00      15.9994
     259     4 O    8    6.638211   11.536632    3.506198      6.00      15.9994
     260     4 O    8    4.183216   12.952735    7.928764      6.00      15.9994
     261     4 O    8    9.091371   10.119666   12.351569      6.00      15.9994
     262     4 O    8    5.881865   10.012365   14.563065      6.00      15.9994
     263     4 O    8    8.336201   11.429463    5.717517      6.00      15.9994
     264     4 O    8    5.881678   12.846939   10.139661      6.00      15.9994
     265     4 O    8    5.697336   12.953638   14.562696      6.00      15.9994
     266     4 O    8    5.697705   10.119712    5.717075      6.00      15.9994
     267     4 O    8    8.151867   11.536693   10.140257      6.00      15.9994
     268     4 O    8    8.151457   11.323744   14.563480      6.00      15.9994
     269     4 O    8    5.696540   12.740543    5.716958      6.00      15.9994
     270     4 O    8    5.697769    9.906384   10.140323      6.00      15.9994




 SCF PARAMETERS         Density guess:                                    ATOMIC
                        --------------------------------------------------------
                        max_scf:                                             100
                        max_scf_history:                                       0
                        max_diis:                                              4
                        --------------------------------------------------------
                        eps_scf:                                        1.00E-06
                        eps_scf_history:                                0.00E+00
                        eps_diis:                                       1.00E-01
                        eps_eigval:                                     1.00E-05
                        --------------------------------------------------------
                        level_shift [a.u.]:                                 0.00
[...]
 flops   166 x    96 x   202         552650280960     100.0%      0.0%      0.0%
 flops   167 x    96 x   202         555979499520     100.0%      0.0%      0.0%
 flops   166 x    96 x   205         560857958400     100.0%      0.0%      0.0%
 flops   167 x    96 x   205         564236620800     100.0%      0.0%      0.0%
 flops   410 x    96 x   202         599166259200     100.0%      0.0%      0.0%
 flops   410 x    96 x   205         608064768000     100.0%      0.0%      0.0%
 flops   426 x    96 x   202         622548357120     100.0%      0.0%      0.0%
 flops   426 x    96 x   205         631794124800     100.0%      0.0%      0.0%
 flops   415 x    64 x   213         639498931200     100.0%      0.0%      0.0%
 flops   418 x    64 x   213         644121815040     100.0%      0.0%      0.0%
 flops   423 x    64 x   213         651826621440     100.0%      0.0%      0.0%
 flops   192 x    64 x   202         852279951360     100.0%      0.0%      0.0%
 flops   192 x    64 x   205         864937574400     100.0%      0.0%      0.0%
 flops   166 x    96 x    96         867734323200     100.0%      0.0%      0.0%
 flops   166 x    96 x   213         874117647360     100.0%      0.0%      0.0%
 flops   167 x    96 x    96         875731968000     100.0%      0.0%      0.0%
 flops   167 x    96 x   213         879383416320     100.0%      0.0%      0.0%
 flops   160 x    64 x    64         930775040000     100.0%      0.0%      0.0%
 flops   410 x    96 x   213         947691187200     100.0%      0.0%      0.0%
 flops     8 x     8 x    64         984246681600     100.0%      0.0%      0.0%
 flops   426 x    96 x   213         984674257920     100.0%      0.0%      0.0%
 flops   415 x    64 x    64        1009364992000     100.0%      0.0%      0.0%
 flops   418 x    64 x    64        1016661606400     100.0%      0.0%      0.0%
 flops   423 x    64 x    64        1028822630400     100.0%      0.0%      0.0%
 flops   415 x    96 x   202        1212946329600     100.0%      0.0%      0.0%
 flops   418 x    96 x   202        1221714616320     100.0%      0.0%      0.0%
 flops   415 x    96 x   205        1230960384000     100.0%      0.0%      0.0%
 flops   423 x    96 x   202        1236328427520     100.0%      0.0%      0.0%
 flops   418 x    96 x   205        1239858892800     100.0%      0.0%      0.0%
 flops   423 x    96 x   205        1254689740800     100.0%      0.0%      0.0%
 flops   192 x    96 x    64        1340316057600     100.0%      0.0%      0.0%
 flops   192 x    64 x    96        1340316057600     100.0%      0.0%      0.0%
 flops   192 x    64 x   213        1348036853760     100.0%      0.0%      0.0%
 flops   410 x    64 x    96        1495805952000     100.0%      0.0%      0.0%
 flops   410 x    96 x    64        1495805952000     100.0%      0.0%      0.0%
 flops    19 x     8 x    64        1548829900800     100.0%      0.0%      0.0%
 flops     8 x    19 x    64        1548829900800     100.0%      0.0%      0.0%
 flops   426 x    64 x    96        1554178867200     100.0%      0.0%      0.0%
 flops   426 x    96 x    64        1554178867200     100.0%      0.0%      0.0%
 flops   160 x    64 x   202        1775583232000     100.0%      0.0%      0.0%
 flops   160 x    64 x   205        1801953280000     100.0%      0.0%      0.0%
 flops   415 x    96 x   213        1918496793600     100.0%      0.0%      0.0%
 flops   418 x    96 x   213        1932365445120     100.0%      0.0%      0.0%
 flops   423 x    96 x   213        1955479864320     100.0%      0.0%      0.0%
 flops    19 x    19 x    64        2475020620800     100.0%      0.0%      0.0%
 flops   192 x    96 x   202        2556839854080     100.0%      0.0%      0.0%
 flops   192 x    96 x   205        2594812723200     100.0%      0.0%      0.0%
 flops   160 x    64 x    96        2792325120000     100.0%      0.0%      0.0%
 flops   160 x    96 x    64        2792325120000     100.0%      0.0%      0.0%
 flops   160 x    64 x   213        2808410112000     100.0%      0.0%      0.0%
 flops     8 x     8 x    96        2952740044800     100.0%      0.0%      0.0%
 flops   415 x    64 x    96        3028094976000     100.0%      0.0%      0.0%
 flops   415 x    96 x    64        3028094976000     100.0%      0.0%      0.0%
 flops   418 x    64 x    96        3049984819200     100.0%      0.0%      0.0%
 flops   418 x    96 x    64        3049984819200     100.0%      0.0%      0.0%
 flops   423 x    96 x    64        3086467891200     100.0%      0.0%      0.0%
 flops   423 x    64 x    96        3086467891200     100.0%      0.0%      0.0%
 flops   192 x    96 x    96        4020948172800     100.0%      0.0%      0.0%
 flops   192 x    96 x   213        4044110561280     100.0%      0.0%      0.0%
 flops   410 x    96 x    96        4487417856000     100.0%      0.0%      0.0%
 flops    19 x     8 x    96        4646489702400     100.0%      0.0%      0.0%
 flops     8 x    19 x    96        4646489702400     100.0%      0.0%      0.0%
 flops   426 x    96 x    96        4662536601600     100.0%      0.0%      0.0%
 flops   160 x    96 x   202        5326749696000     100.0%      0.0%      0.0%
 flops   160 x    96 x   205        5405859840000     100.0%      0.0%      0.0%
 flops    19 x    19 x    96        7425061862400     100.0%      0.0%      0.0%
 flops   160 x    96 x    96        8376975360000     100.0%      0.0%      0.0%
 flops   160 x    96 x   213        8425230336000     100.0%      0.0%      0.0%
 flops   415 x    96 x    96        9084284928000     100.0%      0.0%      0.0%
 flops   418 x    96 x    96        9149954457600     100.0%      0.0%      0.0%
 flops   423 x    96 x    96        9259403673600     100.0%      0.0%      0.0%
 flops     8 x    32 x     8       13548938231808     100.0%      0.0%      0.0%
 flops    19 x    32 x     8       21452485533696     100.0%      0.0%      0.0%
 flops     8 x    32 x    19       21452485533696     100.0%      0.0%      0.0%
 flops    19 x    32 x    19       33966435428352     100.0%      0.0%      0.0%
 flops inhomo. stacks              10685080250936     100.0%      0.0%      0.0%
 flops total                       299.986511E+12     100.0%      0.0%      0.0%
 flops max/rank                      2.784196E+12     100.0%      0.0%      0.0%
 matmuls inhomo. stacks                   1339904     100.0%      0.0%      0.0%
 matmuls total                        10507801444     100.0%      0.0%      0.0%
 number of processed stacks              75532288     100.0%      0.0%      0.0%
 average stack size                                   139.1       0.0       0.0
 marketing flops                   328.842191E+12
 -------------------------------------------------------------------------------
 # multiplications                          21794
 max memory usage/rank             288.395264E+06
 # max total images/rank                        2
 # max 3D layers                                1
 # MPI messages exchanged               125533440
 MPI messages size (bytes):
  total size                        21.113489E+12
  min size                           0.000000E+00
  max size                         753.168000E+03
  average size                     168.190156E+03
 MPI breakdown and total messages size (bytes):
             size <=      128              561600                        0
       128 < size <=     8192                   0                        0
      8192 < size <=    32768             4371525             143084235600
     32768 < size <=   131072            63942255            4969728797160
    131072 < size <=  4194304            56658060           16003723854240
   4194304 < size <= 16777216                   0                        0
  16777216 < size                               0                        0
 -------------------------------------------------------------------------------

 *** WARNING in dbcsr/mm/dbcsr_mm.F:268 :: Using a non-square number of ***
 *** MPI ranks might lead to poor performance.                          ***
 *** Used ranks: 128                                                    ***
 *** Suggested: 121 256                                                 ***

 -------------------------------------------------------------------------------

 MEMORY| Estimated peak process memory [MiB]                                 276

 -------------------------------------------------------------------------------
 ----                             MULTIGRID INFO                            ----
 -------------------------------------------------------------------------------
 count for grid        1:       18825343          cutoff [a.u.]          325.00
 count for grid        2:        8878729          cutoff [a.u.]          108.33
 count for grid        3:        7471820          cutoff [a.u.]           36.11
 count for grid        4:        3346335          cutoff [a.u.]           12.04
 count for grid        5:          26880          cutoff [a.u.]            4.01
 count for grid        6:              0          cutoff [a.u.]            1.34
 count for grid        7:              0          cutoff [a.u.]            0.45
 count for grid        8:              0          cutoff [a.u.]            0.15
 count for grid        9:              0          cutoff [a.u.]            0.05
 count for grid       10:              0          cutoff [a.u.]            0.02
 total gridlevel count  :       38549107

 -------------------------------------------------------------------------------
 -                                                                             -
 -                         MESSAGE PASSING PERFORMANCE                         -
 -                                                                             -
 -------------------------------------------------------------------------------

 ROUTINE             CALLS      AVE VOLUME [Bytes]
 MP_Group              945
 MP_Bcast            18819                  25140.
 MP_Allreduce       161539                    169.
 MP_Sync             32633
 MP_Alltoall        119385                 745051.
 MP_ISendRecv      3088386                  32127.
 MP_Wait           6387216
 MP_comm_split         199
 MP_ISend          2353578                  95078.
 MP_IRecv          2365142                  93962.
 MP_Recv              4788                 857088.
 MP_Memory         1267624
 -------------------------------------------------------------------------------


 -------------------------------------------------------------------------------
 -                                                                             -
 -                           R E F E R E N C E S                               -
 -                                                                             -
 -------------------------------------------------------------------------------
 
 CP2K version 6.1, the CP2K developers group (2018).
 CP2K is freely available from https://www.cp2k.org/ .

 Schuett, Ole; Messmer, Peter; Hutter, Juerg; VandeVondele, Joost. 
 Electronic Structure Calculations on Graphics Processing Units, John Wiley & Sons, Ltd, 173-190 (2016). 
 GPU-Accelerated Sparse Matrix-Matrix Multiplication for Linear Scaling Density Functional Theory.
 http://dx.doi.org/10.1002/9781118670712.ch8


 Borstnik, U; VandeVondele, J; Weber, V; Hutter, J. 
 PARALLEL COMPUTING, 40 (5-6), 47-58 (2014). 
 Sparse matrix multiplication: The distributed block-compressed sparse
 row library.
 http://dx.doi.org/10.1016/j.parco.2014.03.012


 Hutter, J; Iannuzzi, M; Schiffmann, F; VandeVondele, J. 
 WILEY INTERDISCIPLINARY REVIEWS-COMPUTATIONAL MOLECULAR SCIENCE, 4 (1), 15-25 (2014). 
 CP2K: atomistic simulations of condensed matter systems.
 http://dx.doi.org/10.1002/wcms.1159


 Krack, M. 
 THEORETICAL CHEMISTRY ACCOUNTS, 114 (1-3), 145-152 (2005). 
 Pseudopotentials for H to Kr optimized for gradient-corrected
 exchange-correlation functionals.
 http://dx.doi.org/10.1007/s00214-005-0655-y


 VandeVondele, J; Krack, M; Mohamed, F; Parrinello, M; Chassaing, T;
 Hutter, J. COMPUTER PHYSICS COMMUNICATIONS, 167 (2), 103-128 (2005). 
 QUICKSTEP: Fast and accurate density functional calculations using a
 mixed Gaussian and plane waves approach.
 http://dx.doi.org/10.1016/j.cpc.2004.12.014


 Frigo, M; Johnson, SG. 
 PROCEEDINGS OF THE IEEE, 93 (2), 216-231 (2005). 
 The design and implementation of FFTW3.
 http://dx.doi.org/10.1109/JPROC.2004.840301


 Kolafa, J. 
 JOURNAL OF COMPUTATIONAL CHEMISTRY, 25 (3), 335-342 (2004). 
 Time-reversible always stable predictor-corrector method for molecular dynamics of polarizable molecules.
 http://dx.doi.org/10.1002/jcc.10385


 VandeVondele, J; Hutter, J. 
 JOURNAL OF CHEMICAL PHYSICS, 118 (10), 4365-4369 (2003). 
 An efficient orbital transformation method for electronic structure
 calculations.
 http://dx.doi.org/10.1063/1.1543154


 Hartwigsen, C; Goedecker, S; Hutter, J. 
 PHYSICAL REVIEW B, 58 (7), 3641-3662 (1998). 
 Relativistic separable dual-space Gaussian pseudopotentials from H to Rn.
 http://dx.doi.org/10.1103/PhysRevB.58.3641


 Dudarev, SL; Botton, GA; Savrasov, SY; Humphreys, CJ; Sutton, AP. 
 PHYSICAL REVIEW B, 57 (3), 1505-1509 (1998). 
 Electron-energy-loss spectra and the structural stability of
 nickel oxide: An LSDA+U study.
 http://dx.doi.org/10.1103/PhysRevB.57.1505


 Lippert, G; Hutter, J; Parrinello, M. 
 MOLECULAR PHYSICS, 92 (3), 477-487 (1997). 
 A hybrid Gaussian and plane wave density functional scheme.
 http://dx.doi.org/10.1080/002689797170220


 Dudarev, SL; Manh, DN; Sutton, AP. 
 PHILOSOPHICAL MAGAZINE B, 75 (5), 613-628 (1997). 
 Effect of Mott-Hubbard correlations on the electronic
 structure and structural stability of uranium dioxide.
 http://dx.doi.org/10.1080/13642819708202343


 Goedecker, S; Teter, M; Hutter, J. 
 PHYSICAL REVIEW B, 54 (3), 1703-1710 (1996). 
 Separable dual-space Gaussian pseudopotentials.
 http://dx.doi.org/10.1103/PhysRevB.54.1703


 BECKE, AD. PHYSICAL REVIEW A, 38 (6), 3098-3100 (1988). 
 DENSITY-FUNCTIONAL EXCHANGE-ENERGY APPROXIMATION WITH CORRECT
 ASYMPTOTIC-BEHAVIOR.
 http://dx.doi.org/10.1103/PhysRevA.38.3098


 LEE, CT; YANG, WT; PARR, RG. 
 PHYSICAL REVIEW B, 37 (2), 785-789 (1988). 
 DEVELOPMENT OF THE COLLE-SALVETTI CORRELATION-ENERGY FORMULA INTO A
 FUNCTIONAL OF THE ELECTRON-DENSITY.
 http://dx.doi.org/10.1103/PhysRevB.37.785


 -------------------------------------------------------------------------------
 -                                                                             -
 -                                T I M I N G                                  -
 -                                                                             -
 -------------------------------------------------------------------------------
 SUBROUTINE                       CALLS  ASD         SELF TIME        TOTAL TIME
                                MAXIMUM       AVERAGE  MAXIMUM  AVERAGE  MAXIMUM
 CP2K                                 1  1.0    0.008    0.012 2662.965 2662.966
 cp_geo_opt                           1  2.0    0.007    0.030 2662.648 2662.650
 geoopt_cg                            1  3.0    0.000    0.000 2662.640 2662.650
 cp_cg_main                           1  4.0    0.002    0.004 2662.640 2662.650
 cp_eval_at                          29  6.0    0.004    0.005 2662.388 2662.398
 qs_forces                           28  7.0    0.005    0.005 2638.908 2638.917
 qs_energies                         29  7.9    0.003    0.004 2567.883 2567.920
 scf_env_do_scf                      29  8.9    0.003    0.004 2490.880 2490.883
 scf_env_do_scf_inner_loop          853  9.8    0.034    0.081 2417.919 2433.298
 qs_rho_update_rho                  882 10.9    0.007    0.008 1405.979 1406.720
 calculate_rho_elec                1764 11.9 1126.440 1144.614 1405.972 1406.713
 cg_linmin                           14  5.0    0.000    0.000 1102.045 1102.047
 linmin_2pnt                         14  6.0    0.000    0.000 1102.045 1102.047
 rebuild_ks_matrix                  881 11.7    0.003    0.003  906.707  907.866
 qs_ks_build_kohn_sham_matrix       881 12.7    0.402    0.735  906.704  907.863
 qs_ks_update_qs_env                883 10.8    0.028    0.035  824.156  825.267
 sum_up_and_integrate               469 13.7    0.283    0.353  681.375  681.508
 integrate_v_rspace                 938 14.7  550.669  559.267  681.088  681.311
 qs_scf_new_mos                     853 10.8    0.011    0.013  277.556  279.157
 qs_scf_loop_do_ot                  853 11.8    0.008    0.009  277.545  279.147
 dbcsr_multiply_generic           21794 15.5    1.216    1.323  269.330  273.093
 rs_pw_transfer                   27164 14.8    0.192    0.260  252.910  269.960
 ot_scf_mini                        853 12.8    0.053    0.059  251.700  252.698
 density_rs2pw                     1764 12.9    0.120    0.139  234.231  251.852
 pw_transfer                      40082 15.1    1.853    2.050  220.810  228.210
 fft_wrap_pw1pw2                  38320 16.1    0.213    0.235  218.179  225.562
 multiply_cannon                  21794 16.5    3.875    4.237  204.224  218.499
 fft_wrap_pw1pw2_330              14002 17.6    9.060   10.754  200.223  207.680
 fft3d_ps                         38320 18.1   74.162   80.424  191.982  203.737
 qs_vxc_create                      881 13.7    0.010    0.013  182.205  183.225
 mp_waitall_1                   6273376 17.8  141.953  180.555  141.953  180.555
 multiply_cannon_multrec         348704 17.5  120.312  141.737  120.407  141.836
 mp_alltoall_z22v                 38320 20.1   97.338  132.172   97.338  132.172
 xc_vxc_pw_create                   469 14.7    7.490    8.573  129.258  130.260
 xc_rho_set_and_dset_create         881 15.7    5.774    6.411  107.862  112.273
 rs_pw_transfer_RS2PW_330          1822 14.8   35.941   40.803   93.365  109.827
 ot_mini                            853 13.8    0.007    0.007   99.328  100.865
 potential_pw2rs                    938 15.7    0.092    0.102   96.358   96.585
 mp_waitany                      113840 16.7   63.698   88.024   63.698   88.024
 qs_ks_update_qs_env_forces          28  8.0    0.001    0.001   83.503   83.558
 qs_ot_get_derivative               882 14.8    0.010    0.013   80.382   81.395
 qs_ot_get_p                       1766 13.8    0.012    0.014   71.557   77.579
 multiply_cannon_metrocomm3      348704 17.5    0.868    0.966   24.566   77.130
 x_to_yz                           9395 19.9    8.957   10.849   60.384   70.054
 yz_to_x                           7309 18.9    3.671    4.702   49.008   68.227
 mp_alltoall_d11v                 15837 16.7   54.591   64.904   54.591   64.904
 rs_distribute_matrix              2758 13.8    1.366    2.108   53.967   64.658
 rs_pw_transfer_RS2PW_110          1764 14.9   16.365   17.783   55.886   63.548
 init_scf_run                        29  8.9    0.001    0.001   62.137   62.139
 scf_env_initial_rho_setup           29  9.9    0.000    0.001   62.137   62.138
 wfi_extrapolate                     29 10.9    0.004    0.009   60.039   60.040
 init_scf_loop                       30  9.9    0.001    0.001   58.046   58.064
 -------------------------------------------------------------------------------

 The number of warnings for this run is : 910
 
 -------------------------------------------------------------------------------
  **** **** ******  **  PROGRAM ENDED AT                 2019-08-11 20:19:06.667
 ***** ** ***  *** **   PROGRAM RAN ON            cpn-u23-36.cbls.ccr.buffalo.ed
 **    ****   ******    PROGRAM RAN BY                                  pavankum
 ***** **    ** ** **   PROGRAM PROCESS ID                                455735
  **** **  *******  **  PROGRAM STOPPED IN /projects/academic/mdupuis2/pavan/VAB
                                           _calculation/results_for_paper/8.Hema
                                           tite_dzv/gopt_fe41
