     270
 i =        1, E =    -15928.0586582771
 Fe         0.0330393763        2.9285704089       13.7642897206
 Fe         2.4873460991        4.3512680715        4.9238106776
 Fe         2.4861091408        1.5135163885        9.3410219986
 Fe         2.4861465320        4.3462374944        2.0951799216
 Fe         2.4864860482        1.5137393977        6.5159869265
 Fe         0.0331455067        2.9303076662       10.9375981534
 Fe         0.0335933434        2.9300835396        4.3060620366
 Fe         2.4827614986        4.3544084070        8.7226240823
 Fe         2.4870303559        1.5118503849       13.1495194352
 Fe         2.4866144852        1.5125028800        2.7088450170
 Fe         0.0339074985        2.9314065608        7.1312355147
 Fe         2.4867273969        4.3467218791       11.5510303407
 Fe         4.9403571936        2.9292472328       13.7641297746
 Fe         7.3928194303        4.3458185506        4.9206652338
 Fe         7.3943124640        1.5113027219        9.3415740368
 Fe         7.3942805095        4.3464714072        2.0945920619
 Fe         7.3946013784        1.5113611102        6.5158284351
 Fe         4.9401012079        2.9298944753       10.9372046958
 Fe         4.9396849692        2.9300369647        4.3059237870
 Fe         7.3931155572        4.3466992418        8.7264775834
 Fe         7.3950126405        1.5115338202       13.1492871408
 Fe         7.3943481776        1.5121460860        2.7081838589
 Fe         4.9392174129        2.9315868002        7.1315543349
 Fe         7.3945131552        4.3452074704       11.5532441119
 Fe         9.8487970233        2.9285378890       13.7643523726
 Fe        12.3044252643        4.3464072412        4.9209788968
 Fe        12.3029277385        1.5119746467        9.3409169374
 Fe        12.3035321241        4.3458895693        2.0946376512
 Fe        12.3029831808        1.5114159245        6.5156232796
 Fe         9.8490906422        2.9287543894       10.9363509063
 Fe         9.8484705229        2.9280092198        4.3043824493
 Fe        12.3045285511        4.3462522104        8.7261250253
 Fe        12.3027757765        1.5114003117       13.1496138991
 Fe        12.3033599834        1.5116609091        2.7093852557
 Fe         9.8486300910        2.9286614143        7.1310957615
 Fe        12.3037951102        4.3460107748       11.5532784000
 Fe        -2.4209929498        7.1788882517       13.7642702912
 Fe         0.0367473924        8.5916493810        4.9238486281
 Fe         0.0388888547        5.7638042716        9.3372324645
 Fe         0.0327976397        8.5960182941        2.0953120659
 Fe         0.0419883056        5.7680861380        6.5183724396
 Fe        -2.4208416352        7.1787770968       10.9362099896
 Fe        -2.4205041632        7.1794012052        4.3060208817
 Fe         0.0415119407        8.5944341035        8.7227932062
 Fe         0.0335754652        5.7629809363       13.1492726994
 Fe         0.0337237474        5.7628019293        2.7101076459
 Fe        -2.4185139106        7.1793955102        7.1314034613
 Fe         0.0330473780        8.5952982766       11.5514829230
 Fe         2.4864841197        7.1792124243       13.7639857451
 Fe         4.9351788432        8.5937353531        4.9237754670
 Fe         4.9365043416        5.7665708024        9.3375097569
 Fe         4.9392974899        8.5952590854        2.0959106882
 Fe         4.9304080543        5.7681347247        6.5179454292
 Fe         2.4863400083        7.1794772918       10.9328727979
 Fe         2.4861872789        7.1793992833        4.3164514234
 Fe         4.9341734276        8.5889913986        8.7228815246
 Fe         4.9401425605        5.7631496315       13.1498617182
 Fe         4.9393561229        5.7628201499        2.7096963752
 Fe         2.4873110863        7.1792202869        7.1261672265
 Fe         4.9398190153        8.5953336195       11.5514420061
 Fe         7.3945442281        7.1796800802       13.7637497829
 Fe         9.8493823479        8.5960523393        4.9197890377
 Fe         9.8487901095        5.7626141266        9.3413171207
 Fe         9.8485727497        8.5955338394        2.0940327881
 Fe         9.8487649987        5.7623853612        6.5151669941
 Fe         7.3925989654        7.1795716918       10.9361564937
 Fe         7.3934179195        7.1794387838        4.3056772026
 Fe         9.8480991483        8.5959005551        8.7266024032
 Fe         9.8484639858        5.7632065132       13.1497384496
 Fe         9.8493901734        5.7617011619        2.7086217478
 Fe         7.3914879350        7.1791698807        7.1315451298
 Fe         9.8491235878        8.5968044461       11.5534906503
 Fe        -4.8756550643       11.4295970795       13.7653423727
 Fe        -2.4218831522       12.8470918203        4.9203408724
 Fe        -2.4204746103       10.0122327505        9.3412227342
 Fe        -2.4212777603       12.8467742354        2.0945460120
 Fe        -2.4205695728       10.0124746791        6.5156586555
 Fe        -4.8758246217       11.4301637261       10.9382859452
 Fe        -4.8764615327       11.4300123541        4.3051904707
 Fe        -2.4218383297       12.8469884793        8.7270227374
 Fe        -2.4212410741       10.0128206000       13.1493542498
 Fe        -2.4211255020       10.0126984690        2.7091358979
 Fe        -4.8758429556       11.4303684098        7.1317185865
 Fe        -2.4218308653       12.8466295637       11.5529560073
 Fe         0.0324101375       11.4294252099       13.7641274452
 Fe         2.4868032781       12.8451854733        4.9206090140
 Fe         2.4843964793       10.0068510652        9.3371906752
 Fe         2.4865416917       12.8465279088        2.0933828790
 Fe         2.4857853466       10.0017801613        6.5179470159
 Fe         0.0333562846       11.4283778683       10.9374569878
 Fe         0.0329873563       11.4280642654        4.3054579612
 Fe         2.4861446298       12.8448257325        8.7266700703
 Fe         2.4867607186       10.0121277646       13.1489232700
 Fe         2.4860630452       10.0115696380        2.7097333145
 Fe         0.0337765183       11.4270335262        7.1316813386
 Fe         2.4866792752       12.8455949304       11.5532139559
 Fe         4.9408950373       11.4288236443       13.7651903459
 Fe         7.3945034760       12.8468862172        4.9203770309
 Fe         7.3936646052       10.0125448054        9.3411327811
 Fe         7.3945282454       12.8471581948        2.0939272625
 Fe         7.3925759645       10.0117249361        6.5154512824
 Fe         4.9403499002       11.4288304859       10.9366357552
 Fe         4.9395984916       11.4286280674        4.3052695512
 Fe         7.3939711980       12.8472130930        8.7268981085
 Fe         7.3942036609       10.0129159945       13.1492117450
 Fe         7.3940955521       10.0124504323        2.7090033667
 Fe         4.9389354250       11.4271449802        7.1315935404
 Fe         7.3948076452       12.8469718300       11.5528082865
  O        -0.9129072647        4.3450359041        3.5066784350
  O         3.9962199557        1.5102073681        7.9289993769
  O         1.5423585007        2.9271171276       12.3518400970
  O         4.1867256274        1.4018996553        3.5052639528
  O         1.7318186146        2.8160362622        7.9279621145
  O        -0.7218300989        4.2363039017       12.3518755023
  O         1.7307208404        3.0366322535        3.5046464486
  O        -0.7254947151        4.4524111364        7.9297602915
  O         4.1854298833        1.6211286047       12.3510745942
  O         0.9771143619        1.5107484940       14.5624162371
  O         3.4314268797        2.9259359021        5.7173211113
  O         0.9761955220        4.3425795362       10.1426695120
  O         0.7869368485        4.4545350152       14.5620497739
  O         0.7872287254        1.6204825115        5.7171862296
  O         3.2420841810        3.0362155092       10.1412898781
  O         3.2411954104        2.8188135828       14.5620561945
  O         0.7853772403        4.2336787854        5.7163732610
  O         0.7863145021        1.4022325924       10.1403182752
  O         3.9970793540        4.3440347394        3.5048703738
  O         8.9041575244        1.5119881161        7.9288990154
  O         6.4505438515        2.9278932368       12.3524137306
  O         9.0945588400        1.4023747175        3.5051075915
  O         6.6412399188        2.8183439152        7.9290410169
  O         4.1870770854        4.2363052269       12.3518042924
  O         6.6396340697        3.0374441521        3.5056949724
  O         4.1878624683        4.4517520614        7.9295491236
  O         9.0939391593        1.6215221386       12.3512137719
  O         5.8851688219        1.5110333412       14.5621691102
  O         8.3393432519        2.9278042910        5.7170235444
  O         5.8871876894        4.3428889164       10.1417266481
  O         5.6961656798        4.4541124118       14.5630796351
  O         5.6955832988        1.6207033599        5.7178074178
  O         8.1495406952        3.0376827671       10.1408467907
  O         8.1492367587        2.8198806992       14.5622471312
  O         5.6973334220        4.2340620374        5.7163741977
  O         5.6950598030        1.4020244452       10.1404403521
  O         8.9046850036        4.3450388100        3.5063031680
  O        13.8123550912        1.5108504034        7.9288819515
  O        11.3579272646        2.9282277939       12.3521844865
  O        14.0030954650        1.4020860658        3.5055242068
  O        11.5484649131        2.8187650275        7.9280376487
  O         9.0956289333        4.2361766403       12.3514475866
  O        11.5473194514        3.0377578170        3.5060332306
  O         9.0944294019        4.4545699799        7.9291804405
  O        14.0016328410        1.6210270985       12.3514812680
  O        10.7939514062        1.5118025972       14.5625249201
  O        13.2473682662        2.9271652480        5.7168696695
  O        10.7936574355        4.3448659890       10.1404043766
  O        10.6038591931        4.4550089642       14.5622960579
  O        10.6035050213        1.6217648981        5.7177198147
  O        13.0568498597        3.0373321666       10.1415403780
  O        13.0576059705        2.8191639100       14.5627458605
  O        10.6033737178        4.2359513474        5.7171089255
  O        10.6038573464        1.4025902238       10.1407114514
  O        -3.3666959364        8.5963920152        3.5062282806
  O         1.5318221231        5.7458339380        7.9367301353
  O        -0.9127734839        7.1785757240       12.3524448226
  O         1.7314247085        5.6514992735        3.5028951560
  O        -0.7258533754        7.0695465495        7.9289977853
  O        -3.1757680795        8.4870471664       12.3514154747
  O        -0.7247607811        7.2882640641        3.5047277076
  O        -3.1777398487        8.7059415056        7.9297288221
  O         1.7310828903        5.8716303758       12.3519421096
  O        -1.4772983797        5.7613720835       14.5621887383
  O         0.9665786121        7.1789750916        5.7096531100
  O        -1.4790221955        8.5954313801       10.1407422177
  O        -1.6676327778        8.7060037842       14.5624247703
  O        -1.6696032345        5.8715538867        5.7162861004
  O         0.7862329993        7.2890151054       10.1432936779
  O         0.7871521422        7.0703503525       14.5627340838
  O        -1.6692346405        8.4873173887        5.7181001510
  O        -1.6694208743        5.6519811236       10.1413821502
  O         1.5410928760        8.5973979319        3.5032977481
  O         6.4536669600        5.7604110074        7.9294023174
  O         3.9968761927        7.1783503312       12.3520029738
  O         6.6412769623        5.6530647414        3.5052871900
  O         4.2058840713        7.0687354881        7.9374804442
  O         1.7320345103        8.4874629323       12.3518664829
  O         4.1876207545        7.2884113026        3.5039285487
  O         1.7222819352        8.7225058400        7.9369306434
  O         6.6400895135        5.8714674140       12.3518765525
  O         3.4311159269        5.7616631156       14.5622152746
  O         5.8884183679        7.1786111169        5.7163546389
  O         3.4318018297        8.5964275833       10.1427543553
  O         3.2417760320        8.7059547012       14.5618839545
  O         3.2464171323        5.8624812772        5.7096046432
  O         5.6978836900        7.2889397850       10.1430201952
  O         5.6959548158        7.0700821182       14.5623990008
  O         3.2467176980        8.4960960078        5.7093732707
  O         3.2412138380        5.6524663294       10.1424239995
  O         6.4518460866        8.5961792518        3.5054044840
  O        11.3576288318        5.7620472314        7.9294342768
  O         8.9046441297        7.1785073233       12.3506686507
  O        11.5480988293        5.6523558118        3.5060390158
  O         9.0953917763        7.0697651661        7.9282318235
  O         6.6411316587        8.4869057674       12.3525298865
  O         9.0942752005        7.2885085485        3.5051083472
  O         6.6426105884        8.7068029895        7.9288990810
  O        11.5469424555        5.8721476374       12.3515966574
  O         8.3390664013        5.7616544875       14.5619142031
  O        10.7927356377        7.1787898658        5.7168680303
  O         8.3403639862        8.5957519861       10.1402463697
  O         8.1505312333        8.7056679660       14.5623917020
  O         8.1506450477        5.8715489001        5.7170277743
  O        10.6029379373        7.2888889980       10.1407881762
  O        10.6035886648        7.0695956961       14.5627709554
  O         8.1507729966        8.4871897699        5.7169135358
  O         8.1500514409        5.6526190514       10.1407614889
  O        -5.8203757492       12.8458292127        3.5054949536
  O        -0.9146642040       10.0146607927        7.9283789637
  O        -3.3664840088       11.4297759704       12.3517512626
  O        -0.7229585472        9.9045212999        3.5045943669
  O        -3.1765271497       11.3206618700        7.9289715476
  O        -5.6298069247       12.7374298703       12.3515565232
  O        -3.1774064420       11.5397516288        3.5058671859
  O        -5.6314572995       12.9560236681        7.9290449009
  O        -0.7237906509       10.1226586043       12.3520676875
  O        -3.9313306633       10.0119990445       14.5622332726
  O        -1.4776939385       11.4304794228        5.7170432238
  O        -3.9315287628       12.8453194810       10.1397679187
  O        -4.1206621800       12.9562821517       14.5627587738
  O        -4.1215684665       10.1231967769        5.7175609449
  O        -1.6665375930       11.5399984620       10.1402196757
  O        -1.6668490540       11.3207314758       14.5628139547
  O        -4.1214407570       12.7368565816        5.7172949825
  O        -4.1217642507        9.9039384882       10.1410076286
  O        -0.9122325695       12.8467056497        3.5052451594
  O         3.9974924742       10.0157284435        7.9283345694
  O         1.5418591276       11.4301092586       12.3523120183
  O         4.1866976495        9.9050247066        3.5043627146
  O         1.7317279697       11.3244304762        7.9287482431
  O        -0.7218867711       12.7377967434       12.3510189276
  O         1.7313820070       11.5402464028        3.5055559600
  O        -0.7237366888       12.9568465726        7.9289925833
  O         4.1852259165       10.1228886100       12.3513005796
  O         0.9764112573       10.0129604009       14.5617935610
  O         3.4320011448       11.4323111819        5.7161285627
  O         0.9770432439       12.8463886882       10.1400438655
  O         0.7876444804       12.9570947993       14.5621651142
  O         0.7853015491       10.1251970704        5.7159253479
  O         3.2426497693       11.5418959740       10.1412721241
  O         3.2411808421       11.3211771626       14.5621013694
  O         0.7867027010       12.7381817271        5.7168106907
  O         0.7851411189        9.9058386372       10.1426943894
  O         3.9958152849       12.8467578079        3.5050476616
  O         8.9050029883       10.0127964336        7.9289455208
  O         6.4509170363       11.4295062174       12.3515246693
  O         9.0944987484        9.9033111295        3.5063112303
  O         6.6414033264       11.3208495261        7.9289224845
  O         4.1870836723       12.7368363230       12.3516704056
  O         6.6404220015       11.5398719103        3.5057299398
  O         4.1851313476       12.9568169590        7.9289700554
  O         9.0932794791       10.1228560284       12.3517520800
  O         5.8857426131       10.0127317493       14.5626812826
  O         8.3399910761       11.4297741997        5.7172123575
  O         5.8854146815       12.8470375351       10.1399479533
  O         5.6956999471       12.9567396868       14.5626159291
  O         5.6973863615       10.1243131797        5.7170370430
  O         8.1505114193       11.5400543888       10.1406752010
  O         8.1498686588       11.3207782340       14.5631560901
  O         5.6952708666       12.7381757706        5.7166534535
  O         5.6970973711        9.9048457402       10.1416496990
     270
 i =        2, E =    -15928.0729440109
 Fe         0.0329967820        2.9286682770       13.7592912898
 Fe         2.4876357729        4.3527752573        4.9202898794
 Fe         2.4861786409        1.5146326723        9.3358349966
 Fe         2.4861288980        4.3463933741        2.1007980037
 Fe         2.4863762960        1.5141500877        6.5210869553
 Fe         0.0332542217        2.9304394075       10.9420534971
 Fe         0.0341960536        2.9305736628        4.3114709154
 Fe         2.4817930694        4.3575388411        8.7254185602
 Fe         2.4870099268        1.5119985700       13.1543526946
 Fe         2.4866291018        1.5126987909        2.7042090891
 Fe         0.0341635324        2.9326425719        7.1265823959
 Fe         2.4867569462        4.3468582900       11.5451170960
 Fe         4.9403337803        2.9293078974       13.7591650958
 Fe         7.3924458858        4.3460249836        4.9163312312
 Fe         7.3943727683        1.5114323943        9.3364561547
 Fe         7.3941271387        4.3464412537        2.0996615069
 Fe         7.3943035552        1.5112667727        6.5209177310
 Fe         4.9398893209        2.9302867986       10.9415105762
 Fe         4.9393714028        2.9305610039        4.3114256424
 Fe         7.3923078714        4.3469489623        8.7312887136
 Fe         7.3949369609        1.5115159870       13.1541069245
 Fe         7.3943811209        1.5120207622        2.7035403367
 Fe         4.9392450391        2.9323769350        7.1265966542
 Fe         7.3941882679        4.3453070773       11.5478017724
 Fe         9.8488181130        2.9286043385       13.7592956379
 Fe        12.3047883153        4.3467016021        4.9166467014
 Fe        12.3028328646        1.5118712785        9.3358784489
 Fe        12.3036869080        4.3459232122        2.0996690700
 Fe        12.3031822023        1.5112288798        6.5207095677
 Fe         9.8490632479        2.9287212794       10.9412542405
 Fe         9.8485032385        2.9280746987        4.3097155323
 Fe        12.3052580446        4.3468148988        8.7309836799
 Fe        12.3028425099        1.5114061226       13.1543967293
 Fe        12.3033763863        1.5116669527        2.7046189383
 Fe         9.8486524846        2.9286277739        7.1262321608
 Fe        12.3038940630        4.3462444343       11.5478492355
 Fe        -2.4208980697        7.1789149250       13.7592590630
 Fe         0.0378847777        8.5907674042        4.9203472814
 Fe         0.0413135977        5.7638796761        9.3301350103
 Fe         0.0329585103        8.5959533529        2.1009222992
 Fe         0.0471831109        5.7705602352        6.5247901834
 Fe        -2.4203888664        7.1787534900       10.9406254879
 Fe        -2.4198676886        7.1793090574        4.3115047315
 Fe         0.0447854217        8.5938418627        8.7255431886
 Fe         0.0335314058        5.7629739047       13.1541145173
 Fe         0.0338815381        5.7630478295        2.7058058532
 Fe        -2.4178350277        7.1789372103        7.1264840384
 Fe         0.0331914427        8.5952118275       11.5455036460
 Fe         2.4864938697        7.1792093755       13.7589128325
 Fe         4.9337615999        8.5932885822        4.9202999768
 Fe         4.9351259350        5.7687139970        9.3303994904
 Fe         4.9393080546        8.5951675326        2.1014756089
 Fe         4.9258096980        5.7713394372        6.5244486924
 Fe         2.4863840289        7.1794428972       10.9353622337
 Fe         2.4862406587        7.1793723312        4.3290214566
 Fe         4.9320510997        8.5864369375        8.7256536173
 Fe         4.9401311469        5.7630878432       13.1545848377
 Fe         4.9390884270        5.7629114008        2.7054761805
 Fe         2.4871901822        7.1792551928        7.1196283261
 Fe         4.9396423216        8.5952663838       11.5454908822
 Fe         7.3943764893        7.1796214856       13.7587784293
 Fe         9.8493703364        8.5958844972        4.9151866530
 Fe         9.8489146839        5.7624968098        9.3362391070
 Fe         9.8487037985        8.5955755787        2.0991551245
 Fe         9.8488698887        5.7626809759        6.5203391509
 Fe         7.3925408596        7.1795169123       10.9408066825
 Fe         7.3926540863        7.1797388726        4.3111370437
 Fe         9.8482263231        8.5958890855        8.7313391097
 Fe         9.8485176559        5.7630972111       13.1544805150
 Fe         9.8492968468        5.7618146085        2.7039541367
 Fe         7.3902678353        7.1787256774        7.1268409983
 Fe         9.8491133329        8.5965069845       11.5482157168
 Fe        -4.8757034184       11.4296539813       13.7603535956
 Fe        -2.4217043952       12.8472363876        4.9156536699
 Fe        -2.4194710393       10.0115799675        9.3360076523
 Fe        -2.4213507408       12.8468359139        2.0995632943
 Fe        -2.4200528078       10.0123196023        6.5208255359
 Fe        -4.8758656497       11.4301411911       10.9428824928
 Fe        -4.8763979446       11.4299721983        4.3103769478
 Fe        -2.4218392932       12.8469293778        8.7316976871
 Fe        -2.4212168290       10.0127074472       13.1542580452
 Fe        -2.4209423865       10.0125608475        2.7044476809
 Fe        -4.8759202033       11.4302831360        7.1267519005
 Fe        -2.4216608027       12.8467508396       11.5477218060
 Fe         0.0324898931       11.4293776255       13.7591670259
 Fe         2.4868401277       12.8446797643        4.9162568976
 Fe         2.4832357861       10.0046275499        9.3300817576
 Fe         2.4865538749       12.8463323955        2.0985867234
 Fe         2.4853621796        9.9960741315        6.5243476856
 Fe         0.0333660287       11.4281646433       10.9419109567
 Fe         0.0331114227       11.4273168331        4.3109280148
 Fe         2.4862606760       12.8439852755        8.7314390202
 Fe         2.4867286146       10.0121084901       13.1537635306
 Fe         2.4861733115       10.0113246506        2.7054463497
 Fe         0.0347221318       11.4262359436        7.1269428566
 Fe         2.4869151016       12.8454203405       11.5477109490
 Fe         4.9407327151       11.4288235308       13.7600487435
 Fe         7.3943356667       12.8469121366        4.9156747783
 Fe         7.3926375599       10.0119330379        9.3358987241
 Fe         7.3945550928       12.8470750221        2.0990562186
 Fe         7.3923921414       10.0114478441        6.5206049946
 Fe         4.9400084761       11.4284699198       10.9410258360
 Fe         4.9392981010       11.4280563497        4.3108234501
 Fe         7.3941020447       12.8472117445        8.7315731765
 Fe         7.3941138726       10.0128832301       13.1541561543
 Fe         7.3938736148       10.0123495748        2.7043611870
 Fe         4.9381501178       11.4266960824        7.1265446962
 Fe         7.3947121976       12.8470767625       11.5476478649
  O        -0.9156651410        4.3449670123        3.5061553830
  O         3.9937812182        1.5100267574        7.9289583480
  O         1.5397701405        2.9271870420       12.3520020121
  O         4.1879608835        1.3995317985        3.5052608465
  O         1.7331937924        2.8125256233        7.9282977651
  O        -0.7207399279        4.2339219168       12.3521413835
  O         1.7318894252        3.0384943991        3.5043089970
  O        -0.7260192591        4.4532166593        7.9296194445
  O         4.1868467696        1.6230842411       12.3513504000
  O         0.9795839056        1.5107375065       14.5622704106
  O         3.4342047616        2.9254863371        5.7168870086
  O         0.9784351970        4.3419054668       10.1441257442
  O         0.7856302031        4.4566591774       14.5619571712
  O         0.7859251912        1.6222764893        5.7169764576
  O         3.2408732000        3.0377785620       10.1418695231
  O         3.2399322329        2.8164959689       14.5620411008
  O         0.7832779242        4.2301985264        5.7157147762
  O         0.7850835688        1.3997335789       10.1405336095
  O         3.9948963109        4.3434604940        3.5037613278
  O         8.9016569936        1.5121181251        7.9290051568
  O         6.4481194037        2.9278504953       12.3525100807
  O         9.0957325884        1.4002763913        3.5050060914
  O         6.6425770004        2.8157912580        7.9290095648
  O         4.1882658538        4.2338522443       12.3520637431
  O         6.6410985476        3.0396306661        3.5055347782
  O         4.1897389286        4.4530164589        7.9298665227
  O         9.0952903883        1.6236593966       12.3513429464
  O         5.8877175176        1.5110952652       14.5620957553
  O         8.3420908352        2.9278398208        5.7168946210
  O         5.8900541333        4.3432020704       10.1415196663
  O         5.6949505267        4.4563480514       14.5628542907
  O         5.6944867579        1.6225247554        5.7175516885
  O         8.1485403076        3.0396440201       10.1409718917
  O         8.1480607990        2.8176273931       14.5622715403
  O         5.6962269061        4.2314759389        5.7168016136
  O         5.6938787602        1.3996313295       10.1406248408
  O         8.9022266145        4.3450084303        3.5060562251
  O        13.8097431592        1.5109252269        7.9287648855
  O        11.3554914351        2.9282852500       12.3521652117
  O        14.0043121498        1.3998485021        3.5055289564
  O        11.5495323531        2.8164860881        7.9282316747
  O         9.0966907470        4.2338970932       12.3515007401
  O        11.5486053078        3.0398938948        3.5058606140
  O         9.0958550915        4.4567174171        7.9292173205
  O        14.0029720761        1.6231000704       12.3516765583
  O        10.7963969427        1.5117878023       14.5624785868
  O        13.2495191523        2.9269545562        5.7166846760
  O        10.7958391676        4.3448976835       10.1404974249
  O        10.6026221115        4.4571595471       14.5623730316
  O        10.6021678830        1.6240473089        5.7174621593
  O        13.0555318142        3.0393493264       10.1416815074
  O        13.0563967936        2.8169137518       14.5626641381
  O        10.6019984406        4.2335482395        5.7170083541
  O        10.6026710259        1.4006283215       10.1408255675
  O        -3.3693953407        8.5963869991        3.5060791393
  O         1.5198057815        5.7371874193        7.9392734486
  O        -0.9154515386        7.1786927462       12.3526124571
  O         1.7327919551        5.6491911776        3.5025595237
  O        -0.7257410667        7.0672339729        7.9293910373
  O        -3.1748502048        8.4848262126       12.3516087914
  O        -0.7240726524        7.2904488050        3.5036376233
  O        -3.1767415410        8.7081837336        7.9295989081
  O         1.7324890134        5.8738066674       12.3522789599
  O        -1.4749242957        5.7613880523       14.5621027653
  O         0.9626094345        7.1776914512        5.7047455801
  O        -1.4770900023        8.5958446227       10.1413766879
  O        -1.6689212872        8.7082034115       14.5623708571
  O        -1.6712881691        5.8736806901        5.7167373196
  O         0.7842616374        7.2915346306       10.1447835369
  O         0.7857934390        7.0679976193       14.5624018666
  O        -1.6710405550        8.4852043409        5.7175636165
  O        -1.6706298476        5.6493827325       10.1412526088
  O         1.5384126202        8.5973060203        3.5028909276
  O         6.4533074773        5.7596320159        7.9292918694
  O         3.9942775491        7.1785138438       12.3523255429
  O         6.6426499890        5.6505801154        3.5049766137
  O         4.2193154137        7.0626315121        7.9398190202
  O         1.7332077467        8.4851414244       12.3521856727
  O         4.1888608870        7.2908001466        3.5034298498
  O         1.7208236842        8.7372384286        7.9393566742
  O         6.6415093507        5.8736640714       12.3521750702
  O         3.4337532399        5.7616861868       14.5619586865