 DBCSR| Multiplication driver                                               BLAS
 DBCSR| Multrec recursion limit                                              512
 DBCSR| Multiplication stack size                                           1000
 DBCSR| Maximum elements for images                                    UNLIMITED
 DBCSR| Multiplicative factor virtual images                                   1
 DBCSR| Multiplication size stacks                                             3
 DBCSR| Number of 3D layers                                               SINGLE
 DBCSR| Use MPI memory allocation                                              T
 DBCSR| Use RMA algorithm                                                      F
 DBCSR| Use Communication thread                                               T
 DBCSR| Communication thread load                                             87


  **** **** ******  **  PROGRAM STARTED AT               2019-08-11 09:32:19.098
 ***** ** ***  *** **   PROGRAM STARTED ON        cpn-u22-31.cbls.ccr.buffalo.ed
 **    ****   ******    PROGRAM STARTED BY                              pavankum
 ***** **    ** ** **   PROGRAM PROCESS ID                                 59318
  **** **  *******  **  PROGRAM STARTED IN /projects/academic/mdupuis2/pavan/VAB
                                           _calculation/results_for_paper/3.1D_F
                                           e_7units/blyp_plusU5/def_opts/point_0
                                           .6

 CP2K| version string:                                          CP2K version 6.1
 CP2K| source code revision number:                                    svn:18464
 CP2K| cp2kflags: libint fftw3 libxc parallel mpi3 scalapack libderiv_max_am1=5 
 CP2K|            libint_max_am=6
 CP2K| is freely available from                            https://www.cp2k.org/
 CP2K| Program compiled at                          Fri Nov 30 14:17:09 EST 2018
 CP2K| Program compiled on                       srv-p22-12.cbls.ccr.buffalo.edu
 CP2K| Program compiled for                                                local
 CP2K| Data directory path    /projects/academic/mdupuis2/pavan/cp2k/cp2k-6.1/da
 CP2K| Input file name                                                 input.inp

 GLOBAL| Force Environment number                                              1
 GLOBAL| Basis set file name            /projects/academic/mdupuis2/pavan/BASIS_
 GLOBAL| Potential file name            /projects/academic/mdupuis2/pavan/POTENT
 GLOBAL| MM Potential file name                                     MM_POTENTIAL
 GLOBAL| Coordinate file name                             intermediate_point.xyz
 GLOBAL| Method name                                                        CP2K
 GLOBAL| Project name                                                      p_fe_
 GLOBAL| Preferred FFT library                                             FFTW3
 GLOBAL| Preferred diagonalization lib.                                       SL
 GLOBAL| Run type                                                         ENERGY
 GLOBAL| All-to-all communication in single precision                          F
 GLOBAL| FFTs using library dependent lengths                                  T
 GLOBAL| Global print level                                               MEDIUM
 GLOBAL| Total number of message passing processes                            32
 GLOBAL| Number of threads for this process                                    1
 GLOBAL| This output is from process                                           0
 GLOBAL| CPU model name :  Intel(R) Xeon(R) Gold 6130 CPU @ 2.10GHz

 MEMORY| system memory details [Kb]
 MEMORY|                        rank 0           min           max       average
 MEMORY| MemTotal            196268376     196268376     196268376     196268376
 MEMORY| MemFree             188077744     188077744     188077744     188077744
 MEMORY| Buffers                269420        269420        269420        269420
 MEMORY| Cached                1373172       1373172       1373172       1373172
 MEMORY| Slab                   818368        818368        818368        818368
 MEMORY| SReclaimable           454976        454976        454976        454976
 MEMORY| MemLikelyFree       190175312     190175312     190175312     190175312


 *** Fundamental physical constants (SI units) ***

 *** Literature: B. J. Mohr and B. N. Taylor,
 ***             CODATA recommended values of the fundamental physical
 ***             constants: 2006, Web Version 5.1
 ***             http://physics.nist.gov/constants

 Speed of light in vacuum [m/s]                             2.99792458000000E+08
 Magnetic constant or permeability of vacuum [N/A**2]       1.25663706143592E-06
 Electric constant or permittivity of vacuum [F/m]          8.85418781762039E-12
 Planck constant (h) [J*s]                                  6.62606896000000E-34
 Planck constant (h-bar) [J*s]                              1.05457162825177E-34
 Elementary charge [C]                                      1.60217648700000E-19
 Electron mass [kg]                                         9.10938215000000E-31
 Electron g factor [ ]                                     -2.00231930436220E+00
 Proton mass [kg]                                           1.67262163700000E-27
 Fine-structure constant                                    7.29735253760000E-03
 Rydberg constant [1/m]                                     1.09737315685270E+07
 Avogadro constant [1/mol]                                  6.02214179000000E+23
 Boltzmann constant [J/K]                                   1.38065040000000E-23
 Atomic mass unit [kg]                                      1.66053878200000E-27
 Bohr radius [m]                                            5.29177208590000E-11

 *** Conversion factors ***

 [u] -> [a.u.]                                              1.82288848426455E+03
 [Angstrom] -> [Bohr] = [a.u.]                              1.88972613288564E+00
 [a.u.] = [Bohr] -> [Angstrom]                              5.29177208590000E-01
 [a.u.] -> [s]                                              2.41888432650478E-17
 [a.u.] -> [fs]                                             2.41888432650478E-02
 [a.u.] -> [J]                                              4.35974393937059E-18
 [a.u.] -> [N]                                              8.23872205491840E-08
 [a.u.] -> [K]                                              3.15774647902944E+05
 [a.u.] -> [kJ/mol]                                         2.62549961709828E+03
 [a.u.] -> [kcal/mol]                                       6.27509468713739E+02
 [a.u.] -> [Pa]                                             2.94210107994716E+13
 [a.u.] -> [bar]                                            2.94210107994716E+08
 [a.u.] -> [atm]                                            2.90362800883016E+08
 [a.u.] -> [eV]                                             2.72113838565563E+01
 [a.u.] -> [Hz]                                             6.57968392072181E+15
 [a.u.] -> [1/cm] (wave numbers)                            2.19474631370540E+05
 [a.u./Bohr**2] -> [1/cm]                                   5.14048714338585E+03
 

 CELL_TOP| Volume [angstrom^3]:                                        26196.625
 CELL_TOP| Vector a [angstrom    21.385     0.000     0.000    |a| =      21.385
 CELL_TOP| Vector b [angstrom     0.000    35.000     0.000    |b| =      35.000
 CELL_TOP| Vector c [angstrom     0.000     0.000    35.000    |c| =      35.000
 CELL_TOP| Angle (b,c), alpha [degree]:                                   90.000
 CELL_TOP| Angle (a,c), beta  [degree]:                                   90.000
 CELL_TOP| Angle (a,b), gamma [degree]:                                   90.000
 CELL_TOP| Numerically orthorhombic:                                         YES

 CELL| Volume [angstrom^3]:                                            26196.625
 CELL| Vector a [angstrom]:      21.385     0.000     0.000    |a| =      21.385
 CELL| Vector b [angstrom]:       0.000    35.000     0.000    |b| =      35.000
 CELL| Vector c [angstrom]:       0.000     0.000    35.000    |c| =      35.000
 CELL| Angle (b,c), alpha [degree]:                                       90.000
 CELL| Angle (a,c), beta  [degree]:                                       90.000
 CELL| Angle (a,b), gamma [degree]:                                       90.000
 CELL| Numerically orthorhombic:                                             YES

 CELL_REF| Volume [angstrom^3]:                                        26196.625
 CELL_REF| Vector a [angstrom    21.385     0.000     0.000    |a| =      21.385
 CELL_REF| Vector b [angstrom     0.000    35.000     0.000    |b| =      35.000
 CELL_REF| Vector c [angstrom     0.000     0.000    35.000    |c| =      35.000
 CELL_REF| Angle (b,c), alpha [degree]:                                   90.000
 CELL_REF| Angle (a,c), beta  [degree]:                                   90.000
 CELL_REF| Angle (a,b), gamma [degree]:                                   90.000
 CELL_REF| Numerically orthorhombic:                                         YES

 *******************************************************************************
 *******************************************************************************
 **                                                                           **
 **     #####                         ##              ##                      **
 **    ##   ##            ##          ##              ##                      **
 **   ##     ##                       ##            ######                    **
 **   ##     ##  ##   ##  ##   #####  ##  ##   ####   ##    #####    #####    **
 **   ##     ##  ##   ##  ##  ##      ## ##   ##      ##   ##   ##  ##   ##   **
 **   ##  ## ##  ##   ##  ##  ##      ####     ###    ##   ######   ######    **
 **    ##  ###   ##   ##  ##  ##      ## ##      ##   ##   ##       ##        **
 **     #######   #####   ##   #####  ##  ##  ####    ##    #####   ##        **
 **           ##                                                    ##        **
 **                                                                           **
 **                                                ... make the atoms dance   **
 **                                                                           **
 **            Copyright (C) by CP2K developers group (2000 - 2018)           **
 **                                                                           **
 *******************************************************************************

 DFT| Spin unrestricted (spin-polarized) Kohn-Sham calculation               UKS
 DFT| Multiplicity                                                            35
 DFT| Number of spin states                                                    2
 DFT| Charge                                                                   6
 DFT| Self-interaction correction (SIC)                                       NO
 DFT| Cutoffs: density                                              1.000000E-10
 DFT|          gradient                                             1.000000E-10
 DFT|          tau                                                  1.000000E-10
 DFT|          cutoff_smoothing_range                               0.000000E+00
 DFT| XC density smoothing                                                  NONE
 DFT| XC derivatives                                                          PW

 DFT+U| Method                                                          MULLIKEN
 DFT+U| Check atomic kind information for details
 FUNCTIONAL| ROUTINE=NEW
 FUNCTIONAL| BECKE88:
 FUNCTIONAL| A. Becke, Phys. Rev. A 38, 3098 (1988) {LSD version}               
 FUNCTIONAL| LYP:
 FUNCTIONAL| C. Lee, W. Yang, R.G. Parr, Phys. Rev. B, 37, 785 (1988) {LSD versi
 FUNCTIONAL| on}                                                                

 QS| Method:                                                                 GPW
 QS| Density plane wave grid type                        NON-SPHERICAL FULLSPACE
 QS| Number of grid levels:                                                   10
 QS| Density cutoff [a.u.]:                                                325.0
 QS| Multi grid cutoff [a.u.]: 1) grid level                               325.0
 QS|                           2) grid level                               108.3
 QS|                           3) grid level                                36.1
 QS|                           4) grid level                                12.0
 QS|                           5) grid level                                 4.0
 QS|                           6) grid level                                 1.3
 QS|                           7) grid level                                 0.4
 QS|                           8) grid level                                 0.1
 QS|                           9) grid level                                 0.0
 QS|                          10) grid level                                 0.0
 QS| Grid level progression factor:                                          3.0
 QS| Relative density cutoff [a.u.]:                                        30.0
 QS| Consistent realspace mapping and integration 
 QS| Interaction thresholds: eps_pgf_orb:                                1.0E-10
 QS|                         eps_filter_matrix:                          0.0E+00
 QS|                         eps_core_charge:                            1.0E-14
 QS|                         eps_rho_gspace:                             1.0E-12
 QS|                         eps_rho_rspace:                             1.0E-12
 QS|                         eps_gvg_rspace:                             1.0E-06
 QS|                         eps_ppl:                                    1.0E-02
 QS|                         eps_ppnl:                                   1.0E-08


 ATOMIC KIND INFORMATION

  1. Atomic kind: Fe                                    Number of atoms:       7

     Orbital Basis Set                                                   mod-DZV

       Number of orbital shell sets:                                           1
       Number of orbital shells:                                               7
       Number of primitive Cartesian functions:                                6
       Number of Cartesian basis functions:                                   21
       Number of spherical basis functions:                                   19
       Norm type:                                                              2

       Normalised Cartesian orbitals:

                        Set   Shell   Orbital            Exponent    Coefficient

                          1       1    2s                8.424366      -0.545589
                                                         4.825220      -0.832336
                                                         2.198939       0.958990
                                                         0.891661       0.416271
                                                         0.316231       0.012631
                                                         0.103474      -0.013505

                          1       2    3s                8.424366      -0.106056
                                                         4.825220      -0.104587
                                                         2.198939       0.052318
                                                         0.891661      -0.169042
                                                         0.316231       0.061854
                                                         0.103474       0.122891

                          1       3    4s                8.424366      -0.333477
                                                         4.825220      -0.289267
                                                         2.198939      -0.125861
                                                         0.891661      -1.004000
                                                         0.316231       0.780774
                                                         0.103474      -0.187846

                          1       4    3px               8.424366      -1.658234
                                                         4.825220       1.618912
                                                         2.198939       1.969078
                                                         0.891661       0.523780
                                                         0.316231       0.024574
                                                         0.103474      -0.000798
                          1       4    3py               8.424366      -1.658234
                                                         4.825220       1.618912
                                                         2.198939       1.969078
                                                         0.891661       0.523780
                                                         0.316231       0.024574
                                                         0.103474      -0.000798
                          1       4    3pz               8.424366      -1.658234
                                                         4.825220       1.618912
                                                         2.198939       1.969078
                                                         0.891661       0.523780
                                                         0.316231       0.024574
                                                         0.103474      -0.000798

                          1       5    4px               8.424366      -0.105249
                                                         4.825220      -0.126123
                                                         2.198939      -0.349657
                                                         0.891661      -0.133470
                                                         0.316231       0.170554
                                                         0.103474       0.054381
                          1       5    4py               8.424366      -0.105249
                                                         4.825220      -0.126123
                                                         2.198939      -0.349657
                                                         0.891661      -0.133470
                                                         0.316231       0.170554
                                                         0.103474       0.054381
                          1       5    4pz               8.424366      -0.105249
                                                         4.825220      -0.126123
                                                         2.198939      -0.349657
                                                         0.891661      -0.133470
                                                         0.316231       0.170554
                                                         0.103474       0.054381

                          1       6    4dx2              8.424366       7.918298
                                                         4.825220       5.112663
                                                         2.198939       2.118663
                                                         0.891661       0.465004
                                                         0.316231       0.065856
                                                         0.103474       0.002769
                          1       6    4dxy              8.424366      13.714895
                                                         4.825220       8.855393
                                                         2.198939       3.669632
                                                         0.891661       0.805411
                                                         0.316231       0.114066
                                                         0.103474       0.004796
                          1       6    4dxz              8.424366      13.714895
                                                         4.825220       8.855393
                                                         2.198939       3.669632
                                                         0.891661       0.805411
                                                         0.316231       0.114066
                                                         0.103474       0.004796
                          1       6    4dy2              8.424366       7.918298
                                                         4.825220       5.112663
                                                         2.198939       2.118663
                                                         0.891661       0.465004
                                                         0.316231       0.065856
                                                         0.103474       0.002769
                          1       6    4dyz              8.424366      13.714895
                                                         4.825220       8.855393
                                                         2.198939       3.669632
                                                         0.891661       0.805411
                                                         0.316231       0.114066
                                                         0.103474       0.004796
                          1       6    4dz2              8.424366       7.918298
                                                         4.825220       5.112663
                                                         2.198939       2.118663
                                                         0.891661       0.465004
                                                         0.316231       0.065856
                                                         0.103474       0.002769

                          1       7    5dx2              8.424366      -4.223614
                                                         4.825220      -1.970584
                                                         2.198939      -1.543490
                                                         0.891661      -0.041381
                                                         0.316231       0.082821
                                                         0.103474       0.021964
                          1       7    5dxy              8.424366      -7.315513
                                                         4.825220      -3.413151
                                                         2.198939      -2.673404
                                                         0.891661      -0.071673
                                                         0.316231       0.143450
                                                         0.103474       0.038042
                          1       7    5dxz              8.424366      -7.315513
                                                         4.825220      -3.413151
                                                         2.198939      -2.673404
                                                         0.891661      -0.071673
                                                         0.316231       0.143450
                                                         0.103474       0.038042
                          1       7    5dy2              8.424366      -4.223614
                                                         4.825220      -1.970584
                                                         2.198939      -1.543490
                                                         0.891661      -0.041381
                                                         0.316231       0.082821
                                                         0.103474       0.021964
                          1       7    5dyz              8.424366      -7.315513
                                                         4.825220      -3.413151
                                                         2.198939      -2.673404
                                                         0.891661      -0.071673
                                                         0.316231       0.143450
                                                         0.103474       0.038042
                          1       7    5dz2              8.424366      -4.223614
                                                         4.825220      -1.970584
                                                         2.198939      -1.543490
                                                         0.891661      -0.041381
                                                         0.316231       0.082821
                                                         0.103474       0.021964

     GTH Potential information for                                  GTH-BLYP-q16

       Description:                       Goedecker-Teter-Hutter pseudopotential
                                           Goedecker et al., PRB 54, 1703 (1996)
                                          Hartwigsen et al., PRB 58, 3641 (1998)
                                                      Krack, TCA 114, 145 (2005)

       Gaussian exponent of the core charge distribution:               3.858025
       Electronic configuration (s p d ...):                           4   6   6

       Parameters of the local part of the GTH pseudopotential:

                          rloc        C1          C2          C3          C4
                        0.360000    7.011025   -0.222747

       Parameters of the non-local part of the GTH pseudopotential:

                   l      r(l)      h(i,j,l)

                   0    0.276205    0.611496    7.992357
                                    7.992357  -10.318089
                   1    0.247130   -8.710556    8.684169
                                    8.684169  -10.275248
                   2    0.223534  -12.411504

     A DFT+U correction is applied to atoms of this atomic kind:
       Angular quantum momentum number L:                                      2
       U(eff) = (U - J) value in [eV]:                                     5.000

  2. Atomic kind: O                                     Number of atoms:      28

     Orbital Basis Set                                                   mod-DZV

       Number of orbital shell sets:                                           1
       Number of orbital shells:                                               4
       Number of primitive Cartesian functions:                                5
       Number of Cartesian basis functions:                                    8
       Number of spherical basis functions:                                    8
       Norm type:                                                              2

       Normalised Cartesian orbitals:

                        Set   Shell   Orbital            Exponent    Coefficient

                          1       1    2s               10.389228       0.396646
                                                         3.849621       0.208811
                                                         1.388401      -0.301641
                                                         0.496955      -0.274061
                                                         0.162492      -0.033677

                          1       2    3s               10.389228       0.303673
                                                         3.849621       0.240943
                                                         1.388401      -0.313066
                                                         0.496955      -0.043055
                                                         0.162492       0.213991

                          1       3    3px              10.389228      -1.530415
                                                         3.849621      -1.371928
                                                         1.388401      -0.761951
                                                         0.496955      -0.253695
                                                         0.162492      -0.035541
                          1       3    3py              10.389228      -1.530415
                                                         3.849621      -1.371928
                                                         1.388401      -0.761951
                                                         0.496955      -0.253695
                                                         0.162492      -0.035541
                          1       3    3pz              10.389228      -1.530415
                                                         3.849621      -1.371928
                                                         1.388401      -0.761951
                                                         0.496955      -0.253695
                                                         0.162492      -0.035541

                          1       4    4px              10.389228      -0.565392
                                                         3.849621      -0.038231
                                                         1.388401      -0.382373
                                                         0.496955       0.179070
                                                         0.162492       0.122714
                          1       4    4py              10.389228      -0.565392
                                                         3.849621      -0.038231
                                                         1.388401      -0.382373
                                                         0.496955       0.179070
                                                         0.162492       0.122714
                          1       4    4pz              10.389228      -0.565392
                                                         3.849621      -0.038231
                                                         1.388401      -0.382373
                                                         0.496955       0.179070
                                                         0.162492       0.122714

     GTH Potential information for                                   GTH-BLYP-q6

       Description:                       Goedecker-Teter-Hutter pseudopotential
                                           Goedecker et al., PRB 54, 1703 (1996)
                                          Hartwigsen et al., PRB 58, 3641 (1998)
                                                      Krack, TCA 114, 145 (2005)

       Gaussian exponent of the core charge distribution:               8.438331
       Electronic configuration (s p d ...):                               2   4

       Parameters of the local part of the GTH pseudopotential:

                          rloc        C1          C2          C3          C4
                        0.243420  -16.991892    2.566142

       Parameters of the non-local part of the GTH pseudopotential:

                   l      r(l)      h(i,j,l)

                   0    0.220831   18.388851
                   1    0.217201

  3. Atomic kind: H                                     Number of atoms:      42

     Orbital Basis Set                                                   mod-DZV

       Number of orbital shell sets:                                           1
       Number of orbital shells:                                               2
       Number of primitive Cartesian functions:                                5
       Number of Cartesian basis functions:                                    2
       Number of spherical basis functions:                                    2
       Norm type:                                                              2

       Normalised Cartesian orbitals:

                        Set   Shell   Orbital            Exponent    Coefficient

                          1       1    2s               10.068468      -0.133023
                                                         2.680223      -0.177618
                                                         0.791502      -0.258419
                                                         0.239116      -0.107525
                                                         0.082193      -0.014019

                          1       2    3s               10.068468       0.344673
                                                         2.680223       1.819821
                                                         0.791502      -0.999069
                                                         0.239116       0.017430
                                                         0.082193       0.082660

     GTH Potential information for                                   GTH-BLYP-q1

       Description:                       Goedecker-Teter-Hutter pseudopotential
                                           Goedecker et al., PRB 54, 1703 (1996)
                                          Hartwigsen et al., PRB 58, 3641 (1998)
                                                      Krack, TCA 114, 145 (2005)

       Gaussian exponent of the core charge distribution:              12.500000
       Electronic configuration (s p d ...):                                   1

       Parameters of the local part of the GTH pseudopotential:

                          rloc        C1          C2          C3          C4
                        0.200000   -4.195961    0.730498


 MOLECULE KIND INFORMATION


 All atoms are their own molecule, skipping detailed information


 TOTAL NUMBERS AND MAXIMUM NUMBERS

  Total number of            - Atomic kinds:                                   3
                             - Atoms:                                         77
                             - Shell sets:                                    77
                             - Shells:                                       245
                             - Primitive Cartesian functions:                392
                             - Cartesian basis functions:                    455
                             - Spherical basis functions:                    441

  Maximum angular momentum of- Orbital basis functions:                        2
                             - Local part of the GTH pseudopotential:          2
                             - Non-local part of the GTH pseudopotential:      3


 MODULE QUICKSTEP:  ATOMIC COORDINATES IN angstrom

  Atom  Kind  Element       X           Y           Z          Z(eff)       Mass

       1     1 Fe  26   18.339084    0.000004    0.000065     16.00      55.8450
       2     1 Fe  26   15.277733   -0.000245   -0.000071     16.00      55.8450
       3     1 Fe  26   12.197497   -0.000039    0.000476     16.00      55.8450
       4     1 Fe  26    9.156870    0.013659    0.000050     16.00      55.8450
       5     1 Fe  26    6.143127    0.010723    0.000035     16.00      55.8450
       6     1 Fe  26    3.087167   -0.000057   -0.000353     16.00      55.8450
       7     1 Fe  26    0.010742   -0.000442   -0.008751     16.00      55.8450
       8     2 O    8   18.331242   -0.007270    2.114198      6.00      15.9994
       9     2 O    8   18.329109    0.007125   -2.114518      6.00      15.9994
      10     2 O    8   19.859793   -1.260847   -0.008830      6.00      15.9994
      11     2 O    8   19.859655    1.260162    0.003371      6.00      15.9994
      12     2 O    8   15.302862   -0.004202    2.140506      6.00      15.9994
      13     2 O    8   15.302128    0.004084   -2.140257      6.00      15.9994
      14     2 O    8   16.816598   -1.259475   -0.006069      6.00      15.9994
      15     2 O    8   16.816811    1.259149    0.006555      6.00      15.9994
      16     2 O    8   12.266410    0.031822    2.155116      6.00      15.9994
      17     2 O    8   12.266002   -0.032195   -2.153355      6.00      15.9994
      18     2 O    8   13.778424   -1.257067    0.023779      6.00      15.9994
      19     2 O    8   13.780887    1.256947   -0.023893      6.00      15.9994
      20     2 O    8    9.196187    0.010404    2.206816      6.00      15.9994
      21     2 O    8    9.196410    0.028588   -2.207187      6.00      15.9994
      22     2 O    8   10.771369   -1.283629    0.010929      6.00      15.9994
      23     2 O    8   10.786785    1.297729   -0.009518      6.00      15.9994
      24     2 O    8    6.084590    0.031396    2.194573      6.00      15.9994
      25     2 O    8    6.085188   -0.004515   -2.194150      6.00      15.9994
      26     2 O    8    7.624842   -1.298278    0.006364      6.00      15.9994
      27     2 O    8    7.621686    1.324525   -0.006219      6.00      15.9994
      28     2 O    8    3.013675   -0.028816    2.160099      6.00      15.9994
      29     2 O    8    3.015791    0.028112   -2.162106      6.00      15.9994
      30     2 O    8    4.533061   -1.272150    0.001167      6.00      15.9994
      31     2 O    8    4.518965    1.284372   -0.001792      6.00      15.9994
      32     2 O    8   -0.021833   -0.008476    2.114489      6.00      15.9994
      33     2 O    8   -0.024213    0.008303   -2.134606      6.00      15.9994
      34     2 O    8    1.516461   -1.257297   -0.025355      6.00      15.9994
      35     2 O    8    1.514299    1.256755    0.006734      6.00      15.9994
      36     3 H    1   18.314269   -0.804050   -2.677866      1.00       1.0079
      37     3 H    1   18.287181    0.821728   -2.670139      1.00       1.0079
      38     3 H    1   18.286442   -0.821977    2.670726      1.00       1.0079
      39     3 H    1   18.310580    0.804036    2.677548      1.00       1.0079
      40     3 H    1   19.863109   -2.249687   -0.009581      1.00       1.0079
      41     3 H    1   19.863757    2.248986    0.004523      1.00       1.0079
      42     3 H    1   15.173332   -0.810662   -2.690380      1.00       1.0079
      43     3 H    1   15.101050    0.809992   -2.673244      1.00       1.0079
      44     3 H    1   15.106804   -0.811331    2.674862      1.00       1.0079
      45     3 H    1   15.165479    0.810144    2.689130      1.00       1.0079
      46     3 H    1   16.810042   -2.248325   -0.004544      1.00       1.0079
      47     3 H    1   16.809913    2.247990    0.004148      1.00       1.0079
      48     3 H    1   12.061880   -0.851750   -2.672044      1.00       1.0079
      49     3 H    1   12.046172    0.770897   -2.691042      1.00       1.0079
      50     3 H    1   12.057412   -0.772801    2.695389      1.00       1.0079
      51     3 H    1   12.049699    0.850263    2.670555      1.00       1.0079
      52     3 H    1   13.758647   -2.245356    0.021208      1.00       1.0079
      53     3 H    1   13.760586    2.245166   -0.020576      1.00       1.0079
      54     3 H    1    9.101774   -0.778695   -2.763825      1.00       1.0079
      55     3 H    1    9.108311    0.848141   -2.748552      1.00       1.0079
      56     3 H    1    9.113312   -0.806887    2.753204      1.00       1.0079
      57     3 H    1    9.096071    0.819843    2.757987      1.00       1.0079
      58     3 H    1   10.749606   -2.270877    0.015461      1.00       1.0079
      59     3 H    1   10.773399    2.285052   -0.015518      1.00       1.0079
      60     3 H    1    6.179162   -0.827189   -2.732783      1.00       1.0079
      61     3 H    1    6.222853    0.798933   -2.744108      1.00       1.0079
      62     3 H    1    6.213590   -0.772469    2.747907      1.00       1.0079
      63     3 H    1    6.187558    0.854175    2.730591      1.00       1.0079
      64     3 H    1    7.626680   -2.285013    0.008311      1.00       1.0079
      65     3 H    1    7.622930    2.311514   -0.007920      1.00       1.0079
      66     3 H    1    3.185156   -0.780860   -2.709480      1.00       1.0079
      67     3 H    1    3.246175    0.840377   -2.680700      1.00       1.0079
      68     3 H    1    3.232662   -0.842276    2.681839      1.00       1.0079
      69     3 H    1    3.193703    0.779535    2.704717      1.00       1.0079
      70     3 H    1    4.556652   -2.259540   -0.002424      1.00       1.0079
      71     3 H    1    4.534844    2.271931    0.001167      1.00       1.0079
      72     3 H    1    0.100241   -0.801375   -2.687693      1.00       1.0079
      73     3 H    1    0.107101    0.823250   -2.682816      1.00       1.0079
      74     3 H    1    0.099704   -0.823264    2.665636      1.00       1.0079
      75     3 H    1    0.103017    0.801200    2.667625      1.00       1.0079
      76     3 H    1    1.533276   -2.245738   -0.023935      1.00       1.0079
      77     3 H    1    1.531746    2.245128    0.006721      1.00       1.0079




 SCF PARAMETERS         Density guess:                                   RESTART
                        --------------------------------------------------------
                        max_scf:                                            1000
                        max_scf_history:                                       0
                        max_diis:                                              4
                        --------------------------------------------------------
                        eps_scf:                                        1.00E-06
                        eps_scf_history:                                0.00E+00
                        eps_diis:                                       1.00E-01
                        eps_eigval:                                     1.00E-05
                        --------------------------------------------------------
                        level_shift [a.u.]:                                 0.00
                        --------------------------------------------------------
                        Outer loop SCF in use 
                        No variables optimised in outer loop
                        eps_scf                                         1.00E-06
                        max_scf                                              500
                        No outer loop optimization
                        step_size                                       5.00E-01

 PW_GRID| Information for grid number                                          1
 PW_GRID| Grid distributed over                                    32 processors
 PW_GRID| Real space group dimensions                                    32    1
 PW_GRID| the grid is blocked:                                                NO
 PW_GRID| Cutoff [a.u.]                                                    325.0
 PW_GRID| spherical cutoff:                                                   NO
 PW_GRID|   Bounds   1           -165     164                Points:         330
 PW_GRID|   Bounds   2           -270     269                Points:         540
 PW_GRID|   Bounds   3           -270     269                Points:         540
 PW_GRID| Volume element (a.u.^3)  0.1837E-02     Volume (a.u.^3)    176783.5904
 PW_GRID| Grid span                                                    FULLSPACE
 PW_GRID|   Distribution                         Average         Max         Min
 PW_GRID|   G-Vectors                          3007125.0     3007290     3006960
 PW_GRID|   G-Rays                                9112.5        9113        9112
 PW_GRID|   Real Space Points                  3007125.0     3207600     2916000

 PW_GRID| Information for grid number                                          2
 PW_GRID| Grid distributed over                                    32 processors
 PW_GRID| Real space group dimensions                                    32    1
 PW_GRID| the grid is blocked:                                                NO
 PW_GRID| Cutoff [a.u.]                                                    108.3
 PW_GRID| spherical cutoff:                                                   NO
 PW_GRID|   Bounds   1            -94      94                Points:         189
 PW_GRID|   Bounds   2           -157     157                Points:         315
 PW_GRID|   Bounds   3           -157     157                Points:         315
 PW_GRID| Volume element (a.u.^3)  0.9427E-02     Volume (a.u.^3)    176783.5904
 PW_GRID| Grid span                                                    FULLSPACE
 PW_GRID|   Distribution                         Average         Max         Min
 PW_GRID|   G-Vectors                           586047.7      586278      585900
 PW_GRID|   G-Rays                                3100.8        3102        3100
 PW_GRID|   Real Space Points                   586047.7      595350      496125

 PW_GRID| Information for grid number                                          3
 PW_GRID| Grid distributed over                                    32 processors
 PW_GRID| Real space group dimensions                                    32    1
 PW_GRID| the grid is blocked:                                                NO
 PW_GRID| Cutoff [a.u.]                                                     36.1
 PW_GRID| spherical cutoff:                                                   NO
 PW_GRID|   Bounds   1            -55      54                Points:         110
 PW_GRID|   Bounds   2            -90      89                Points:         180
 PW_GRID|   Bounds   3            -90      89                Points:         180
 PW_GRID| Volume element (a.u.^3)  0.4960E-01     Volume (a.u.^3)    176783.5904
 PW_GRID| Grid span                                                    FULLSPACE
 PW_GRID|   Distribution                         Average         Max         Min
 PW_GRID|   G-Vectors                           111375.0      111540      111210
 PW_GRID|   G-Rays                                1012.5        1014        1011
 PW_GRID|   Real Space Points                   111375.0      129600       97200

 PW_GRID| Information for grid number                                          4
 PW_GRID| Grid distributed over                                    32 processors
 PW_GRID| Real space group dimensions                                    32    1
 PW_GRID| the grid is blocked:                                                NO
 PW_GRID| Cutoff [a.u.]                                                     12.0
 PW_GRID| spherical cutoff:                                                   NO
 PW_GRID|   Bounds   1            -31      31                Points:          63
 PW_GRID|   Bounds   2            -52      52                Points:         105
 PW_GRID|   Bounds   3            -52      52                Points:         105
 PW_GRID| Volume element (a.u.^3)  0.2545         Volume (a.u.^3)    176783.5904
 PW_GRID| Grid span                                                    FULLSPACE
 PW_GRID|   Distribution                         Average         Max         Min
 PW_GRID|   G-Vectors                            21705.5       21798       21609
 PW_GRID|   G-Rays                                 344.5         346         343
 PW_GRID|   Real Space Points                    21705.5       22050       11025

 PW_GRID| Information for grid number                                          5
 PW_GRID| Grid distributed over                                    32 processors
 PW_GRID| Real space group dimensions                                    32    1
 PW_GRID| the grid is blocked:                                                NO
 PW_GRID| Cutoff [a.u.]                                                      4.0
 PW_GRID| spherical cutoff:                                                   NO
 PW_GRID|   Bounds   1            -20      19                Points:          40
 PW_GRID|   Bounds   2            -30      29                Points:          60
 PW_GRID|   Bounds   3            -30      29                Points:          60
 PW_GRID| Volume element (a.u.^3)   1.228         Volume (a.u.^3)    176783.5904
 PW_GRID| Grid span                                                    FULLSPACE
 PW_GRID|   Distribution                         Average         Max         Min
 PW_GRID|   G-Vectors                             4500.0        4520        4480
 PW_GRID|   G-Rays                                 112.5         113         112
 PW_GRID|   Real Space Points                     4500.0        7200        3600

 PW_GRID| Information for grid number                                          6
 PW_GRID| Grid distributed over                                    32 processors
 PW_GRID| Real space group dimensions                                     4    8
 PW_GRID| the grid is blocked:                                                NO
 PW_GRID| Cutoff [a.u.]                                                      1.3
 PW_GRID| spherical cutoff:                                                   NO
 PW_GRID|   Bounds   1            -10      10                Points:          21
 PW_GRID|   Bounds   2            -17      17                Points:          35
 PW_GRID|   Bounds   3            -17      17                Points:          35
 PW_GRID| Volume element (a.u.^3)   6.872         Volume (a.u.^3)    176783.5904
 PW_GRID| Grid span                                                    FULLSPACE
 PW_GRID|   Distribution                         Average         Max         Min
 PW_GRID|   G-Vectors                              803.9         903         714
 PW_GRID|   G-Rays                                  38.3          43          34
 PW_GRID|   Real Space Points                      803.9        1050         700

 PW_GRID| Information for grid number                                          7
 PW_GRID| Grid distributed over                                    32 processors
 PW_GRID| Real space group dimensions                                     4    8
 PW_GRID| the grid is blocked:                                                NO
 PW_GRID| Cutoff [a.u.]                                                      0.4
 PW_GRID| spherical cutoff:                                                   NO
 PW_GRID|   Bounds   1             -7       6                Points:          14
 PW_GRID|   Bounds   2            -10       9                Points:          20
 PW_GRID|   Bounds   3            -10       9                Points:          20
 PW_GRID| Volume element (a.u.^3)   31.57         Volume (a.u.^3)    176783.5904
 PW_GRID| Grid span                                                    FULLSPACE
 PW_GRID|   Distribution                         Average         Max         Min
 PW_GRID|   G-Vectors                              175.0         182         168
 PW_GRID|   G-Rays                                  12.5          13          12
 PW_GRID|   Real Space Points                      175.0         240         120

 PW_GRID| Information for grid number                                          8
 PW_GRID| Grid distributed over                                    32 processors
 PW_GRID| Real space group dimensions                                     4    8
 PW_GRID| the grid is blocked:                                                NO
 PW_GRID| Cutoff [a.u.]                                                      0.1
 PW_GRID| spherical cutoff:                                                   NO
 PW_GRID|   Bounds   1             -3       3                Points:           7
 PW_GRID|   Bounds   2             -5       5                Points:          11
 PW_GRID|   Bounds   3             -5       5                Points:          11
 PW_GRID| Volume element (a.u.^3)   208.7         Volume (a.u.^3)    176783.5904
 PW_GRID| Grid span                                                    FULLSPACE
 PW_GRID|   Distribution                         Average         Max         Min
 PW_GRID|   G-Vectors                               26.5          42          14
 PW_GRID|   G-Rays                                   3.8           6           2
 PW_GRID|   Real Space Points                       26.5          44          11

 PW_GRID| Information for grid number                                          9
 PW_GRID| Grid distributed over                                    32 processors
 PW_GRID| Real space group dimensions                                     4    8
 PW_GRID| the grid is blocked:                                                NO
 PW_GRID| Cutoff [a.u.]                                                      0.0
 PW_GRID| spherical cutoff:                                                   NO
 PW_GRID|   Bounds   1             -2       2                Points:           5
 PW_GRID|   Bounds   2             -3       3                Points:           7
 PW_GRID|   Bounds   3             -3       3                Points:           7
 PW_GRID| Volume element (a.u.^3)   721.6         Volume (a.u.^3)    176783.5904
 PW_GRID| Grid span                                                    FULLSPACE
 PW_GRID|   Distribution                         Average         Max         Min
 PW_GRID|   G-Vectors                                7.7          15           0
 PW_GRID|   G-Rays                                   1.5           3           0
 PW_GRID|   Real Space Points                        7.7          14           0

 PW_GRID| Information for grid number                                         10
 PW_GRID| Grid distributed over                                    32 processors
 PW_GRID| Real space group dimensions                                     4    8
 PW_GRID| the grid is blocked:                                                NO
 PW_GRID| Cutoff [a.u.]                                                      0.0
 PW_GRID| spherical cutoff:                                                   NO
 PW_GRID|   Bounds   1             -1       1                Points:           3
 PW_GRID|   Bounds   2             -1       1                Points:           3
 PW_GRID|   Bounds   3             -1       1                Points:           3
 PW_GRID| Volume element (a.u.^3)   6548.         Volume (a.u.^3)    176783.5904
 PW_GRID| Grid span                                                    FULLSPACE
 PW_GRID|   Distribution                         Average         Max         Min
 PW_GRID|   G-Vectors                                0.8           3           0
 PW_GRID|   G-Rays                                   0.3           1           0
 PW_GRID|   Real Space Points                        0.8           3           0

 POISSON| Solver                                                        PERIODIC
 POISSON| Periodicity                                                        XYZ

 RS_GRID| Information for grid number                                          1
 RS_GRID|   Bounds   1           -165     164                Points:         330
 RS_GRID|   Bounds   2           -270     269                Points:         540
 RS_GRID|   Bounds   3           -270     269                Points:         540
 RS_GRID| Real space distribution over                                  4 groups
 RS_GRID| Real space distribution along direction                              2
 RS_GRID| Border size                                                         25
 RS_GRID| Real space distribution over                                  8 groups
 RS_GRID| Real space distribution along direction                              3
 RS_GRID| Border size                                                         25
 RS_GRID|   Distribution                         Average         Max         Min
 RS_GRID|   Planes                                 185.0         185         185
 RS_GRID|   Distribution                         Average         Max         Min
 RS_GRID|   Planes                                 117.5         118         117

 RS_GRID| Information for grid number                                          2
 RS_GRID|   Bounds   1            -94      94                Points:         189
 RS_GRID|   Bounds   2           -157     157                Points:         315
 RS_GRID|   Bounds   3           -157     157                Points:         315
 RS_GRID| Real space distribution over                                  4 groups
 RS_GRID| Real space distribution along direction                              2
 RS_GRID| Border size                                                         28
 RS_GRID| Real space distribution over                                  8 groups
 RS_GRID| Real space distribution along direction                              3
 RS_GRID| Border size                                                         28
 RS_GRID|   Distribution                         Average         Max         Min
 RS_GRID|   Planes                                 134.8         135         134
 RS_GRID|   Distribution                         Average         Max         Min
 RS_GRID|   Planes                                  95.4          96          95

 RS_GRID| Information for grid number                                          3
 RS_GRID|   Bounds   1            -55      54                Points:         110
 RS_GRID|   Bounds   2            -90      89                Points:         180
 RS_GRID|   Bounds   3            -90      89                Points:         180
 RS_GRID| Real space fully replicated
 RS_GRID| Group size                                                           1

 RS_GRID| Information for grid number                                          4
 RS_GRID|   Bounds   1            -31      31                Points:          63
 RS_GRID|   Bounds   2            -52      52                Points:         105
 RS_GRID|   Bounds   3            -52      52                Points:         105
 RS_GRID| Real space fully replicated
 RS_GRID| Group size                                                           1

 RS_GRID| Information for grid number                                          5
 RS_GRID|   Bounds   1            -20      19                Points:          40
 RS_GRID|   Bounds   2            -30      29                Points:          60
 RS_GRID|   Bounds   3            -30      29                Points:          60
 RS_GRID| Real space fully replicated
 RS_GRID| Group size                                                           1

 RS_GRID| Information for grid number                                          6
 RS_GRID|   Bounds   1            -10      10                Points:          21
 RS_GRID|   Bounds   2            -17      17                Points:          35
 RS_GRID|   Bounds   3            -17      17                Points:          35
 RS_GRID| Real space fully replicated
 RS_GRID| Group size                                                           1

 RS_GRID| Information for grid number                                          7
 RS_GRID|   Bounds   1             -7       6                Points:          14
 RS_GRID|   Bounds   2            -10       9                Points:          20
 RS_GRID|   Bounds   3            -10       9                Points:          20
 RS_GRID| Real space fully replicated
 RS_GRID| Group size                                                           1

 RS_GRID| Information for grid number                                          8
 RS_GRID|   Bounds   1             -3       3                Points:           7
 RS_GRID|   Bounds   2             -5       5                Points:          11
 RS_GRID|   Bounds   3             -5       5                Points:          11
 RS_GRID| Real space fully replicated
 RS_GRID| Group size                                                           1

 RS_GRID| Information for grid number                                          9
 RS_GRID|   Bounds   1             -2       2                Points:           5
 RS_GRID|   Bounds   2             -3       3                Points:           7
 RS_GRID|   Bounds   3             -3       3                Points:           7
 RS_GRID| Real space fully replicated
 RS_GRID| Group size                                                           1

 RS_GRID| Information for grid number                                         10
 RS_GRID|   Bounds   1             -1       1                Points:           3
 RS_GRID|   Bounds   2             -1       1                Points:           3
 RS_GRID|   Bounds   3             -1       1                Points:           3
 RS_GRID| Real space fully replicated
 RS_GRID| Group size                                                           1

 Spin 1

 Number of electrons:                                                        175
 Number of occupied orbitals:                                                175
 Number of molecular orbitals:                                               175

 Spin 2

 Number of electrons:                                                        141
 Number of occupied orbitals:                                                141
 Number of molecular orbitals:                                               141

 Number of orbital functions:                                                441
 Number of independent orbital functions:                                    441

 Extrapolation method: initial_guess


 SCF WAVEFUNCTION OPTIMIZATION

  ----------------------------------- OT ---------------------------------------
  Minimizer      : CG                  : conjugate gradient
  Preconditioner : FULL_KINETIC        : inversion of T + eS
  Precond_solver : DEFAULT
  Line search    : 2PNT                : 2 energies, one gradient
  stepsize       :    0.15000000                  energy_gap     :    0.20000000
  eps_taylor     :   0.10000E-15                  max_taylor     :             4
  ----------------------------------- OT ---------------------------------------

  Step     Update method      Time    Convergence         Total energy    Change
  ------------------------------------------------------------------------------

 *** WARNING in dft_plus_u.F:1457 :: DFT+U energy contibution is negative ***
 *** possibly due to unphysical Mulliken charges. Check your input, if    ***
 *** this warning persists or try a different method!                     ***

     1 OT CG       0.15E+00   10.2     0.00041511     -1335.5022703149 -1.34E+03

 *** WARNING in dft_plus_u.F:1457 :: DFT+U energy contibution is negative ***
 *** possibly due to unphysical Mulliken charges. Check your input, if    ***
 *** this warning persists or try a different method!                     ***

     2 OT LS       0.60E+00    6.5                    -1335.5056003341

 *** WARNING in dft_plus_u.F:1457 :: DFT+U energy contibution is negative ***
 *** possibly due to unphysical Mulliken charges. Check your input, if    ***
 *** this warning persists or try a different method!                     ***

     3 OT CG       0.60E+00   12.8     0.00022125     -1335.5123262637 -1.01E-02

 *** WARNING in dft_plus_u.F:1457 :: DFT+U energy contibution is negative ***
 *** possibly due to unphysical Mulliken charges. Check your input, if    ***
 *** this warning persists or try a different method!                     ***

     4 OT LS       0.90E+00    6.5                    -1335.5150525389

 *** WARNING in dft_plus_u.F:1457 :: DFT+U energy contibution is negative ***
 *** possibly due to unphysical Mulliken charges. Check your input, if    ***
 *** this warning persists or try a different method!                     ***

     5 OT CG       0.90E+00   12.7     0.00025008     -1335.5153906261 -3.06E-03

 *** WARNING in dft_plus_u.F:1457 :: DFT+U energy contibution is negative ***
 *** possibly due to unphysical Mulliken charges. Check your input, if    ***
 *** this warning persists or try a different method!                     ***

     6 OT LS       0.38E+00    6.6                    -1335.5139434296

 *** WARNING in dft_plus_u.F:1457 :: DFT+U energy contibution is negative ***
 *** possibly due to unphysical Mulliken charges. Check your input, if    ***
 *** this warning persists or try a different method!                     ***

     7 OT CG       0.38E+00   12.7     0.00013724     -1335.5170430134 -1.65E-03

 *** WARNING in dft_plus_u.F:1457 :: DFT+U energy contibution is negative ***
 *** possibly due to unphysical Mulliken charges. Check your input, if    ***
 *** this warning persists or try a different method!                     ***

     8 OT LS       0.35E+00    6.5                    -1335.5174977712

 *** WARNING in dft_plus_u.F:1457 :: DFT+U energy contibution is negative ***
 *** possibly due to unphysical Mulliken charges. Check your input, if    ***
 *** this warning persists or try a different method!                     ***

     9 OT CG       0.35E+00   12.8     0.00009853     -1335.5175011655 -4.58E-04

 *** WARNING in dft_plus_u.F:1457 :: DFT+U energy contibution is negative ***
 *** possibly due to unphysical Mulliken charges. Check your input, if    ***
 *** this warning persists or try a different method!                     ***

    10 OT LS       0.47E+00    6.5                    -1335.5177975990

 *** WARNING in dft_plus_u.F:1457 :: DFT+U energy contibution is negative ***
 *** possibly due to unphysical Mulliken charges. Check your input, if    ***
 *** this warning persists or try a different method!                     ***

    11 OT CG       0.47E+00   12.7     0.00009180     -1335.5178183089 -3.17E-04

 *** WARNING in dft_plus_u.F:1457 :: DFT+U energy contibution is negative ***
 *** possibly due to unphysical Mulliken charges. Check your input, if    ***
 *** this warning persists or try a different method!                     ***

    12 OT LS       0.46E+00    6.5                    -1335.5180855098

 *** WARNING in dft_plus_u.F:1457 :: DFT+U energy contibution is negative ***
 *** possibly due to unphysical Mulliken charges. Check your input, if    ***
 *** this warning persists or try a different method!                     ***

    13 OT CG       0.46E+00   12.8     0.00005982     -1335.5180857428 -2.67E-04

 *** WARNING in dft_plus_u.F:1457 :: DFT+U energy contibution is negative ***
 *** possibly due to unphysical Mulliken charges. Check your input, if    ***
 *** this warning persists or try a different method!                     ***

    14 OT LS       0.35E+00    6.5                    -1335.5181664665

 *** WARNING in dft_plus_u.F:1457 :: DFT+U energy contibution is negative ***
 *** possibly due to unphysical Mulliken charges. Check your input, if    ***
 *** this warning persists or try a different method!                     ***

    15 OT CG       0.35E+00   12.9     0.00004582     -1335.5181738297 -8.81E-05

 *** WARNING in dft_plus_u.F:1457 :: DFT+U energy contibution is negative ***
 *** possibly due to unphysical Mulliken charges. Check your input, if    ***
 *** this warning persists or try a different method!                     ***

    16 OT LS       0.59E+00    6.5                    -1335.5182460983

 *** WARNING in dft_plus_u.F:1457 :: DFT+U energy contibution is negative ***
 *** possibly due to unphysical Mulliken charges. Check your input, if    ***
 *** this warning persists or try a different method!                     ***

    17 OT CG       0.59E+00   12.7     0.00005260     -1335.5182597168 -8.59E-05

 *** WARNING in dft_plus_u.F:1457 :: DFT+U energy contibution is negative ***
 *** possibly due to unphysical Mulliken charges. Check your input, if    ***
 *** this warning persists or try a different method!                     ***

    18 OT LS       0.62E+00    6.4                    -1335.5183789547

 *** WARNING in dft_plus_u.F:1457 :: DFT+U energy contibution is negative ***
 *** possibly due to unphysical Mulliken charges. Check your input, if    ***
 *** this warning persists or try a different method!                     ***

    19 OT CG       0.62E+00   12.8     0.00005435     -1335.5183792976 -1.20E-04

 *** WARNING in dft_plus_u.F:1457 :: DFT+U energy contibution is negative ***
 *** possibly due to unphysical Mulliken charges. Check your input, if    ***
 *** this warning persists or try a different method!                     ***

    20 OT LS       0.50E+00    6.4                    -1335.5184753650

 *** WARNING in dft_plus_u.F:1457 :: DFT+U energy contibution is negative ***
 *** possibly due to unphysical Mulliken charges. Check your input, if    ***
 *** this warning persists or try a different method!                     ***

    21 OT CG       0.50E+00   12.8     0.00005001     -1335.5184816490 -1.02E-04

 *** WARNING in dft_plus_u.F:1457 :: DFT+U energy contibution is negative ***
 *** possibly due to unphysical Mulliken charges. Check your input, if    ***
 *** this warning persists or try a different method!                     ***

    22 OT LS       0.59E+00    6.5                    -1335.5185824391

 *** WARNING in dft_plus_u.F:1457 :: DFT+U energy contibution is negative ***
 *** possibly due to unphysical Mulliken charges. Check your input, if    ***
 *** this warning persists or try a different method!                     ***

    23 OT CG       0.59E+00   12.7     0.00005429     -1335.5185852085 -1.04E-04

 *** WARNING in dft_plus_u.F:1457 :: DFT+U energy contibution is negative ***
 *** possibly due to unphysical Mulliken charges. Check your input, if    ***
 *** this warning persists or try a different method!                     ***

    24 OT LS       0.56E+00    6.4                    -1335.5186991756

 *** WARNING in dft_plus_u.F:1457 :: DFT+U energy contibution is negative ***
 *** possibly due to unphysical Mulliken charges. Check your input, if    ***
 *** this warning persists or try a different method!                     ***

    25 OT CG       0.56E+00   12.9     0.00004784     -1335.5186996762 -1.14E-04

 *** WARNING in dft_plus_u.F:1457 :: DFT+U energy contibution is negative ***
 *** possibly due to unphysical Mulliken charges. Check your input, if    ***
 *** this warning persists or try a different method!                     ***

    26 OT LS       0.46E+00    6.5                    -1335.5187687450

 *** WARNING in dft_plus_u.F:1457 :: DFT+U energy contibution is negative ***
 *** possibly due to unphysical Mulliken charges. Check your input, if    ***
 *** this warning persists or try a different method!                     ***

    27 OT CG       0.46E+00   13.0     0.00003445     -1335.5187723676 -7.27E-05

 *** WARNING in dft_plus_u.F:1457 :: DFT+U energy contibution is negative ***
 *** possibly due to unphysical Mulliken charges. Check your input, if    ***
 *** this warning persists or try a different method!                     ***

    28 OT LS       0.44E+00    6.6                    -1335.5188084284

 *** WARNING in dft_plus_u.F:1457 :: DFT+U energy contibution is negative ***
 *** possibly due to unphysical Mulliken charges. Check your input, if    ***
 *** this warning persists or try a different method!                     ***

    29 OT CG       0.44E+00   12.7     0.00002926     -1335.5188084955 -3.61E-05

 *** WARNING in dft_plus_u.F:1457 :: DFT+U energy contibution is negative ***
 *** possibly due to unphysical Mulliken charges. Check your input, if    ***
 *** this warning persists or try a different method!                     ***

    30 OT LS       0.52E+00    6.5                    -1335.5188385440

 *** WARNING in dft_plus_u.F:1457 :: DFT+U energy contibution is negative ***
 *** possibly due to unphysical Mulliken charges. Check your input, if    ***
 *** this warning persists or try a different method!                     ***

    31 OT CG       0.52E+00   12.9     0.00002576     -1335.5188392677 -3.08E-05

 *** WARNING in dft_plus_u.F:1457 :: DFT+U energy contibution is negative ***
 *** possibly due to unphysical Mulliken charges. Check your input, if    ***
 *** this warning persists or try a different method!                     ***

    32 OT LS       0.40E+00    6.5                    -1335.5188564684

 *** WARNING in dft_plus_u.F:1457 :: DFT+U energy contibution is negative ***
 *** possibly due to unphysical Mulliken charges. Check your input, if    ***
 *** this warning persists or try a different method!                     ***

    33 OT CG       0.40E+00   12.7     0.00001948     -1335.5188579241 -1.87E-05

 *** WARNING in dft_plus_u.F:1457 :: DFT+U energy contibution is negative ***
 *** possibly due to unphysical Mulliken charges. Check your input, if    ***
 *** this warning persists or try a different method!                     ***

    34 OT LS       0.50E+00    6.6                    -1335.5188706622

 *** WARNING in dft_plus_u.F:1457 :: DFT+U energy contibution is negative ***
 *** possibly due to unphysical Mulliken charges. Check your input, if    ***
 *** this warning persists or try a different method!                     ***

    35 OT CG       0.50E+00   12.7     0.00001912     -1335.5188711581 -1.32E-05

 *** WARNING in dft_plus_u.F:1457 :: DFT+U energy contibution is negative ***
 *** possibly due to unphysical Mulliken charges. Check your input, if    ***
 *** this warning persists or try a different method!                     ***

    36 OT LS       0.57E+00    6.5                    -1335.5188854531

 *** WARNING in dft_plus_u.F:1457 :: DFT+U energy contibution is negative ***
 *** possibly due to unphysical Mulliken charges. Check your input, if    ***
 *** this warning persists or try a different method!                     ***

    37 OT CG       0.57E+00   12.8     0.00002004     -1335.5188856683 -1.45E-05

 *** WARNING in dft_plus_u.F:1457 :: DFT+U energy contibution is negative ***
 *** possibly due to unphysical Mulliken charges. Check your input, if    ***
 *** this warning persists or try a different method!                     ***

    38 OT LS       0.48E+00    6.5                    -1335.5188985436

 *** WARNING in dft_plus_u.F:1457 :: DFT+U energy contibution is negative ***
 *** possibly due to unphysical Mulliken charges. Check your input, if    ***
 *** this warning persists or try a different method!                     ***

    39 OT CG       0.48E+00   12.7     0.00001819     -1335.5188990390 -1.34E-05

 *** WARNING in dft_plus_u.F:1457 :: DFT+U energy contibution is negative ***
 *** possibly due to unphysical Mulliken charges. Check your input, if    ***
 *** this warning persists or try a different method!                     ***

    40 OT LS       0.51E+00    6.5                    -1335.5189107668

 *** WARNING in dft_plus_u.F:1457 :: DFT+U energy contibution is negative ***
 *** possibly due to unphysical Mulliken charges. Check your input, if    ***
 *** this warning persists or try a different method!                     ***

    41 OT CG       0.51E+00   12.8     0.00001742     -1335.5189108161 -1.18E-05

 *** WARNING in dft_plus_u.F:1457 :: DFT+U energy contibution is negative ***
 *** possibly due to unphysical Mulliken charges. Check your input, if    ***
 *** this warning persists or try a different method!                     ***

    42 OT LS       0.55E+00    6.5                    -1335.5189223868

 *** WARNING in dft_plus_u.F:1457 :: DFT+U energy contibution is negative ***
 *** possibly due to unphysical Mulliken charges. Check your input, if    ***
 *** this warning persists or try a different method!                     ***

    43 OT CG       0.55E+00   12.9     0.00001687     -1335.5189224452 -1.16E-05

 *** WARNING in dft_plus_u.F:1457 :: DFT+U energy contibution is negative ***
 *** possibly due to unphysical Mulliken charges. Check your input, if    ***
 *** this warning persists or try a different method!                     ***

    44 OT LS       0.65E+00    6.4                    -1335.5189350015

 *** WARNING in dft_plus_u.F:1457 :: DFT+U energy contibution is negative ***
 *** possibly due to unphysical Mulliken charges. Check your input, if    ***
 *** this warning persists or try a different method!                     ***

    45 OT CG       0.65E+00   12.7     0.00001626     -1335.5189352943 -1.28E-05

 *** WARNING in dft_plus_u.F:1457 :: DFT+U energy contibution is negative ***
 *** possibly due to unphysical Mulliken charges. Check your input, if    ***
 *** this warning persists or try a different method!                     ***

    46 OT LS       0.45E+00    6.5                    -1335.5189418612

 *** WARNING in dft_plus_u.F:1457 :: DFT+U energy contibution is negative ***
 *** possibly due to unphysical Mulliken charges. Check your input, if    ***
 *** this warning persists or try a different method!                     ***

    47 OT CG       0.45E+00   12.8     0.00001406     -1335.5189435285 -8.23E-06

 *** WARNING in dft_plus_u.F:1457 :: DFT+U energy contibution is negative ***
 *** possibly due to unphysical Mulliken charges. Check your input, if    ***
 *** this warning persists or try a different method!                     ***

    48 OT LS       0.47E+00    6.4                    -1335.5189499407

 *** WARNING in dft_plus_u.F:1457 :: DFT+U energy contibution is negative ***
 *** possibly due to unphysical Mulliken charges. Check your input, if    ***
 *** this warning persists or try a different method!                     ***

    49 OT CG       0.47E+00   12.8     0.00001308     -1335.5189499514 -6.42E-06

 *** WARNING in dft_plus_u.F:1457 :: DFT+U energy contibution is negative ***
 *** possibly due to unphysical Mulliken charges. Check your input, if    ***
 *** this warning persists or try a different method!                     ***

    50 OT LS       0.53E+00    6.6                    -1335.5189561966

 *** WARNING in dft_plus_u.F:1457 :: DFT+U energy contibution is negative ***
 *** possibly due to unphysical Mulliken charges. Check your input, if    ***
 *** this warning persists or try a different method!                     ***

    51 OT CG       0.53E+00   12.8     0.00001224     -1335.5189562946 -6.34E-06

 *** WARNING in dft_plus_u.F:1457 :: DFT+U energy contibution is negative ***
 *** possibly due to unphysical Mulliken charges. Check your input, if    ***
 *** this warning persists or try a different method!                     ***

    52 OT LS       0.52E+00    6.4                    -1335.5189616997

 *** WARNING in dft_plus_u.F:1457 :: DFT+U energy contibution is negative ***
 *** possibly due to unphysical Mulliken charges. Check your input, if    ***
 *** this warning persists or try a different method!                     ***

    53 OT CG       0.52E+00   12.7     0.00001126     -1335.5189617037 -5.41E-06

 *** WARNING in dft_plus_u.F:1457 :: DFT+U energy contibution is negative ***
 *** possibly due to unphysical Mulliken charges. Check your input, if    ***
 *** this warning persists or try a different method!                     ***

    54 OT LS       0.58E+00    6.5                    -1335.5189667362

 *** WARNING in dft_plus_u.F:1457 :: DFT+U energy contibution is negative ***
 *** possibly due to unphysical Mulliken charges. Check your input, if    ***
 *** this warning persists or try a different method!                     ***

    55 OT CG       0.58E+00   12.7     0.00001185     -1335.5189667884 -5.08E-06

 *** WARNING in dft_plus_u.F:1457 :: DFT+U energy contibution is negative ***
 *** possibly due to unphysical Mulliken charges. Check your input, if    ***
 *** this warning persists or try a different method!                     ***

    56 OT LS       0.50E+00    6.5                    -1335.5189715859

 *** WARNING in dft_plus_u.F:1457 :: DFT+U energy contibution is negative ***
 *** possibly due to unphysical Mulliken charges. Check your input, if    ***
 *** this warning persists or try a different method!                     ***

    57 OT CG       0.50E+00   13.0     0.00001148     -1335.5189716934 -4.91E-06

 *** WARNING in dft_plus_u.F:1457 :: DFT+U energy contibution is negative ***
 *** possibly due to unphysical Mulliken charges. Check your input, if    ***
[...]
 flops    32 x    13 x    50             37814400     100.0%      0.0%      0.0%
 flops    32 x    13 x    51             38570688     100.0%      0.0%      0.0%
 flops     2 x    15 x     2             38949120     100.0%      0.0%      0.0%
 flops   111 x    13 x    55             39365040     100.0%      0.0%      0.0%
 flops   111 x    15 x    55             45421200     100.0%      0.0%      0.0%
 flops   110 x    13 x    13             47181420     100.0%      0.0%      0.0%
 flops    19 x     8 x    13             47250112     100.0%      0.0%      0.0%
 flops     8 x    19 x    13             47250112     100.0%      0.0%      0.0%
 flops    19 x    13 x     2             53737320     100.0%      0.0%      0.0%
 flops     2 x    13 x    19             53737320     100.0%      0.0%      0.0%
 flops    19 x     8 x    15             54519360     100.0%      0.0%      0.0%
 flops     8 x    19 x    15             54519360     100.0%      0.0%      0.0%
 flops    19 x    15 x     2             61669440     100.0%      0.0%      0.0%
 flops     2 x    15 x    19             61669440     100.0%      0.0%      0.0%
 flops   110 x    15 x    15             62815500     100.0%      0.0%      0.0%
 flops    45 x    13 x    55             77992200     100.0%      0.0%      0.0%
 flops     8 x     8 x    13             82421248     100.0%      0.0%      0.0%
 flops    19 x    13 x    19             85084090     100.0%      0.0%      0.0%
 flops     8 x    13 x     2             90504960     100.0%      0.0%      0.0%
 flops     2 x    13 x     8             90504960     100.0%      0.0%      0.0%
 flops    47 x    15 x    55             93990600     100.0%      0.0%      0.0%
 flops     8 x     8 x    15             95101440     100.0%      0.0%      0.0%
 flops    19 x    15 x    19             97643280     100.0%      0.0%      0.0%
 flops     8 x    15 x     2            103864320     100.0%      0.0%      0.0%
 flops     2 x    15 x     8            103864320     100.0%      0.0%      0.0%
 flops   110 x    13 x    55            117031200     100.0%      0.0%      0.0%
 flops    32 x    15 x    55            127987200     100.0%      0.0%      0.0%
 flops    64 x    15 x    55            127987200     100.0%      0.0%      0.0%
 flops   110 x    15 x    55            135036000     100.0%      0.0%      0.0%
 flops    45 x    32 x    13            140774400     100.0%      0.0%      0.0%
 flops    45 x    13 x    32            140774400     100.0%      0.0%      0.0%
 flops    19 x    13 x     8            143299520     100.0%      0.0%      0.0%
 flops     8 x    13 x    19            143299520     100.0%      0.0%      0.0%
 flops   111 x    13 x    32            156259584     100.0%      0.0%      0.0%
 flops   111 x    32 x    13            156259584     100.0%      0.0%      0.0%
 flops    19 x    15 x     8            164451840     100.0%      0.0%      0.0%
 flops     8 x    15 x    19            164451840     100.0%      0.0%      0.0%
 flops    32 x    13 x    55            166383360     100.0%      0.0%      0.0%
 flops    47 x    15 x    32            171456000     100.0%      0.0%      0.0%
 flops    47 x    32 x    15            171456000     100.0%      0.0%      0.0%
 flops    45 x    32 x    50            174528000     100.0%      0.0%      0.0%
 flops    45 x    32 x    51            178018560     100.0%      0.0%      0.0%
 flops   111 x    32 x    50            198201600     100.0%      0.0%      0.0%
 flops   111 x    32 x    51            202165632     100.0%      0.0%      0.0%
 flops   111 x    15 x    32            225374400     100.0%      0.0%      0.0%
 flops   111 x    32 x    15            225374400     100.0%      0.0%      0.0%
 flops    47 x    32 x    50            227856000     100.0%      0.0%      0.0%
 flops    47 x    32 x    51            232413120     100.0%      0.0%      0.0%
 flops    64 x    32 x    15            233472000     100.0%      0.0%      0.0%
 flops    32 x    15 x    32            233472000     100.0%      0.0%      0.0%
 flops    32 x    32 x    15            233472000     100.0%      0.0%      0.0%
 flops    64 x    15 x    32            233472000     100.0%      0.0%      0.0%
 flops     8 x    13 x     8            241346560     100.0%      0.0%      0.0%
 flops     2 x     2 x    32            253822464     100.0%      0.0%      0.0%
 flops     8 x    15 x     8            276971520     100.0%      0.0%      0.0%
 flops    32 x    13 x    32            300318720     100.0%      0.0%      0.0%
 flops    32 x    32 x    13            300318720     100.0%      0.0%      0.0%
 flops    64 x    32 x    50            310272000     100.0%      0.0%      0.0%
 flops    64 x    32 x    51            316477440     100.0%      0.0%      0.0%
 flops    19 x     2 x    32            392539392     100.0%      0.0%      0.0%
 flops     2 x    19 x    32            392539392     100.0%      0.0%      0.0%
 flops   110 x    32 x    13            464555520     100.0%      0.0%      0.0%
 flops   110 x    13 x    32            464555520     100.0%      0.0%      0.0%
 flops   110 x    32 x    50            589248000     100.0%      0.0%      0.0%
 flops   110 x    32 x    51            601032960     100.0%      0.0%      0.0%
 flops     8 x     2 x    32            661118976     100.0%      0.0%      0.0%
 flops     2 x     8 x    32            661118976     100.0%      0.0%      0.0%
 flops   110 x    32 x    15            670032000     100.0%      0.0%      0.0%
 flops   110 x    15 x    32            670032000     100.0%      0.0%      0.0%
 flops    32 x    32 x    50            682598400     100.0%      0.0%      0.0%
 flops    32 x    32 x    51            696250368     100.0%      0.0%      0.0%
 flops    19 x    19 x    32            710309376     100.0%      0.0%      0.0%
 flops     2 x    32 x     2            749629440     100.0%      0.0%      0.0%
 flops    45 x    32 x    55            767923200     100.0%      0.0%      0.0%
 flops   111 x    32 x    55            872087040     100.0%      0.0%      0.0%
 flops    47 x    32 x    55           1002566400     100.0%      0.0%      0.0%
 flops    19 x     8 x    32           1046771712     100.0%      0.0%      0.0%
 flops     8 x    19 x    32           1046771712     100.0%      0.0%      0.0%
 flops    19 x    32 x     2           1186913280     100.0%      0.0%      0.0%
 flops     2 x    32 x    19           1186913280     100.0%      0.0%      0.0%
 flops    64 x    32 x    55           1365196800     100.0%      0.0%      0.0%
 flops    45 x    32 x    32           1386086400     100.0%      0.0%      0.0%
 flops     8 x     8 x    32           1825947648     100.0%      0.0%      0.0%
 flops    47 x    32 x    32           1828864000     100.0%      0.0%      0.0%
 flops    19 x    32 x    19           1879279360     100.0%      0.0%      0.0%
 flops     8 x    32 x     2           1999011840     100.0%      0.0%      0.0%
 flops     2 x    32 x     8           1999011840     100.0%      0.0%      0.0%
 flops    64 x    32 x    32           2490368000     100.0%      0.0%      0.0%
 flops   110 x    32 x    55           2592691200     100.0%      0.0%      0.0%
 flops    32 x    32 x    55           3003432960     100.0%      0.0%      0.0%
 flops    19 x    32 x     8           3165102080     100.0%      0.0%      0.0%
 flops     8 x    32 x    19           3165102080     100.0%      0.0%      0.0%
 flops   111 x    32 x    32           3942549504     100.0%      0.0%      0.0%
 flops     8 x    32 x     8           5330698240     100.0%      0.0%      0.0%
 flops    32 x    32 x    32           5447352320     100.0%      0.0%      0.0%
 flops   110 x    32 x    32          11721093120     100.0%      0.0%      0.0%
 flops inhomo. stacks                  5842187160     100.0%      0.0%      0.0%
 flops total                        83.822971E+09     100.0%      0.0%      0.0%
 flops max/rank                      4.629975E+09     100.0%      0.0%      0.0%
 matmuls inhomo. stacks                     32120     100.0%      0.0%      0.0%
 matmuls total                           16495946     100.0%      0.0%      0.0%
 number of processed stacks               1352240     100.0%      0.0%      0.0%
 average stack size                                    12.2       0.0       0.0
 marketing flops                    91.132568E+09
 -------------------------------------------------------------------------------
 # multiplications                           3893
 max memory usage/rank               1.696543E+09
 # max total images/rank                        2
 # max 3D layers                                1
 # MPI messages exchanged                 2616096
 MPI messages size (bytes):
  total size                        23.131169E+09
  min size                           0.000000E+00
  max size                          54.168000E+03
  average size                       8.841865E+03
 MPI breakdown and total messages size (bytes):
             size <=      128              992138                        0
       128 < size <=     8192              791686               5302033464
      8192 < size <=    32768              721840              12460227360
     32768 < size <=   131072              110432               5369231448
    131072 < size <=  4194304                   0                        0
   4194304 < size <= 16777216                   0                        0
  16777216 < size                               0                        0
 -------------------------------------------------------------------------------

 *** WARNING in dbcsr/mm/dbcsr_mm.F:268 :: Using a non-square number of ***
 *** MPI ranks might lead to poor performance.                          ***
 *** Used ranks: 32                                                     ***
 *** Suggested: 36 64                                                   ***

 -------------------------------------------------------------------------------

 MEMORY| Estimated peak process memory [MiB]                                1619

 -------------------------------------------------------------------------------
 ----                             MULTIGRID INFO                            ----
 -------------------------------------------------------------------------------
 count for grid        1:         973389          cutoff [a.u.]          325.00
 count for grid        2:         409490          cutoff [a.u.]          108.33
 count for grid        3:         252426          cutoff [a.u.]           36.11
 count for grid        4:          85741          cutoff [a.u.]           12.04
 count for grid        5:           2880          cutoff [a.u.]            4.01
 count for grid        6:              0          cutoff [a.u.]            1.34
 count for grid        7:              0          cutoff [a.u.]            0.45
 count for grid        8:              0          cutoff [a.u.]            0.15
 count for grid        9:              0          cutoff [a.u.]            0.05
 count for grid       10:              0          cutoff [a.u.]            0.02
 total gridlevel count  :        1723926

 -------------------------------------------------------------------------------
 -                                                                             -
 -                         MESSAGE PASSING PERFORMANCE                         -
 -                                                                             -
 -------------------------------------------------------------------------------

 ROUTINE             CALLS      AVE VOLUME [Bytes]
 MP_Group               37
 MP_Bcast             1494                 217795.
 MP_Allreduce        22639                    251.
 MP_Sync              2206
 MP_Alltoall         16200               22988026.
 MP_ISendRecv        90768                 160201.
 MP_Wait            433108
 MP_ISend           214962                 136782.
 MP_IRecv           216182                 135137.
 MP_Recv                98                  70560.
 MP_Memory          228084
 -------------------------------------------------------------------------------


 -------------------------------------------------------------------------------
 -                                                                             -
 -                           R E F E R E N C E S                               -
 -                                                                             -
 -------------------------------------------------------------------------------
 
 CP2K version 6.1, the CP2K developers group (2018).
 CP2K is freely available from https://www.cp2k.org/ .

 Schuett, Ole; Messmer, Peter; Hutter, Juerg; VandeVondele, Joost. 
 Electronic Structure Calculations on Graphics Processing Units, John Wiley & Sons, Ltd, 173-190 (2016). 
 GPU-Accelerated Sparse Matrix-Matrix Multiplication for Linear Scaling Density Functional Theory.
 http://dx.doi.org/10.1002/9781118670712.ch8


 Borstnik, U; VandeVondele, J; Weber, V; Hutter, J. 
 PARALLEL COMPUTING, 40 (5-6), 47-58 (2014). 
 Sparse matrix multiplication: The distributed block-compressed sparse
 row library.
 http://dx.doi.org/10.1016/j.parco.2014.03.012


 Hutter, J; Iannuzzi, M; Schiffmann, F; VandeVondele, J. 
 WILEY INTERDISCIPLINARY REVIEWS-COMPUTATIONAL MOLECULAR SCIENCE, 4 (1), 15-25 (2014). 
 CP2K: atomistic simulations of condensed matter systems.
 http://dx.doi.org/10.1002/wcms.1159


 Krack, M. 
 THEORETICAL CHEMISTRY ACCOUNTS, 114 (1-3), 145-152 (2005). 
 Pseudopotentials for H to Kr optimized for gradient-corrected
 exchange-correlation functionals.
 http://dx.doi.org/10.1007/s00214-005-0655-y


 VandeVondele, J; Krack, M; Mohamed, F; Parrinello, M; Chassaing, T;
 Hutter, J. COMPUTER PHYSICS COMMUNICATIONS, 167 (2), 103-128 (2005). 
 QUICKSTEP: Fast and accurate density functional calculations using a
 mixed Gaussian and plane waves approach.
 http://dx.doi.org/10.1016/j.cpc.2004.12.014


 Frigo, M; Johnson, SG. 
 PROCEEDINGS OF THE IEEE, 93 (2), 216-231 (2005). 
 The design and implementation of FFTW3.
 http://dx.doi.org/10.1109/JPROC.2004.840301


 VandeVondele, J; Hutter, J. 
 JOURNAL OF CHEMICAL PHYSICS, 118 (10), 4365-4369 (2003). 
 An efficient orbital transformation method for electronic structure
 calculations.
 http://dx.doi.org/10.1063/1.1543154


 Hartwigsen, C; Goedecker, S; Hutter, J. 
 PHYSICAL REVIEW B, 58 (7), 3641-3662 (1998). 
 Relativistic separable dual-space Gaussian pseudopotentials from H to Rn.
 http://dx.doi.org/10.1103/PhysRevB.58.3641


 Dudarev, SL; Botton, GA; Savrasov, SY; Humphreys, CJ; Sutton, AP. 
 PHYSICAL REVIEW B, 57 (3), 1505-1509 (1998). 
 Electron-energy-loss spectra and the structural stability of
 nickel oxide: An LSDA+U study.
 http://dx.doi.org/10.1103/PhysRevB.57.1505


 Lippert, G; Hutter, J; Parrinello, M. 
 MOLECULAR PHYSICS, 92 (3), 477-487 (1997). 
 A hybrid Gaussian and plane wave density functional scheme.
 http://dx.doi.org/10.1080/002689797170220


 Dudarev, SL; Manh, DN; Sutton, AP. 
 PHILOSOPHICAL MAGAZINE B, 75 (5), 613-628 (1997). 
 Effect of Mott-Hubbard correlations on the electronic
 structure and structural stability of uranium dioxide.
 http://dx.doi.org/10.1080/13642819708202343


 Goedecker, S; Teter, M; Hutter, J. 
 PHYSICAL REVIEW B, 54 (3), 1703-1710 (1996). 
 Separable dual-space Gaussian pseudopotentials.
 http://dx.doi.org/10.1103/PhysRevB.54.1703


 BECKE, AD. PHYSICAL REVIEW A, 38 (6), 3098-3100 (1988). 
 DENSITY-FUNCTIONAL EXCHANGE-ENERGY APPROXIMATION WITH CORRECT
 ASYMPTOTIC-BEHAVIOR.
 http://dx.doi.org/10.1103/PhysRevA.38.3098


 LEE, CT; YANG, WT; PARR, RG. 
 PHYSICAL REVIEW B, 37 (2), 785-789 (1988). 
 DEVELOPMENT OF THE COLLE-SALVETTI CORRELATION-ENERGY FORMULA INTO A
 FUNCTIONAL OF THE ELECTRON-DENSITY.
 http://dx.doi.org/10.1103/PhysRevB.37.785


 -------------------------------------------------------------------------------
 -                                                                             -
 -                                T I M I N G                                  -
 -                                                                             -
 -------------------------------------------------------------------------------
 SUBROUTINE                       CALLS  ASD         SELF TIME        TOTAL TIME
                                MAXIMUM       AVERAGE  MAXIMUM  AVERAGE  MAXIMUM
 CP2K                                 1  1.0    0.086    0.090 1176.003 1176.003
 qs_energies                          1  2.0    0.002    0.002 1174.540 1174.540
 scf_env_do_scf                       1  3.0    0.000    0.000 1170.216 1170.216
 scf_env_do_scf_inner_loop          121  4.0    0.005    0.010 1160.083 1160.092
 pw_transfer                       5422  9.3    0.322    0.376  856.867  863.634
 fft_wrap_pw1pw2                   5180 10.3    0.041    0.047  850.858  857.618
 qs_ks_update_qs_env                122  5.0    0.004    0.005  830.221  830.248
 rebuild_ks_matrix                  121  6.0    0.000    0.000  830.166  830.186
 qs_ks_build_kohn_sham_matrix       121  7.0    0.031    0.037  830.166  830.186
 fft_wrap_pw1pw2_330               1886 11.9   63.120   66.638  813.064  815.908
 qs_vxc_create                      121  8.0    0.002    0.002  658.595  659.542
 fft3d_ps                          5180 12.3  415.323  428.118  638.601  645.942
 xc_vxc_pw_create                    61  9.0   10.461   12.017  452.627  453.577
 xc_rho_set_and_dset_create         121 10.0   20.849   22.579  410.978  415.342
 qs_rho_update_rho                  122  5.0    0.001    0.001  338.684  338.700
 calculate_rho_elec                 244  6.0   13.573   32.921  338.683  338.699
 density_rs2pw                      244  7.0    0.021    0.023  310.470  319.524
 xc_exc_calc                         60  9.0    1.090    1.159  205.966  205.982
 x_to_yz                           1641 14.4   97.104  101.864  144.442  150.054
 sum_up_and_integrate                61  8.0    1.414    1.477  112.370  112.373
 integrate_v_rspace                 122  9.0    3.659    9.982  110.956  110.993
 rs_pw_transfer                    3664  9.0    0.030    0.033  101.351  107.540
 potential_pw2rs                    122 10.0    0.185    0.201  100.860  100.896
 mp_alltoall_z22v                  5180 14.3   85.073   96.375   85.073   96.375
 pw_scatter_p                      2251 13.5   82.741   87.140   82.741   87.140
 yz_to_x                           1709 12.6   40.863   41.817   78.569   83.455
 pw_gather_p                       2929 11.4   63.964   66.778   63.964   66.778
 rs_pw_transfer_RS2PW_330           246  9.0   21.748   23.776   43.538   51.229
 pw_derive                         1092 10.7   47.298   49.852   47.298   49.852
 fft_wrap_pw1pw2_110                366 11.0    2.039    2.337   30.523   40.016
 mp_waitany                       26496 11.0   27.864   36.262   27.864   36.262
 pw_copy                           2552 10.8   29.215   30.780   29.215   30.780
 pw_axpy                           3415  8.4   22.400   23.727   22.400   23.727
 -------------------------------------------------------------------------------

 The number of warnings for this run is : 122
 
 -------------------------------------------------------------------------------
  **** **** ******  **  PROGRAM ENDED AT                 2019-08-11 09:51:55.454
 ***** ** ***  *** **   PROGRAM RAN ON            cpn-u22-31.cbls.ccr.buffalo.ed
 **    ****   ******    PROGRAM RAN BY                                  pavankum
 ***** **    ** ** **   PROGRAM PROCESS ID                                 59318
  **** **  *******  **  PROGRAM STOPPED IN /projects/academic/mdupuis2/pavan/VAB
                                           _calculation/results_for_paper/3.1D_F
                                           e_7units/blyp_plusU5/def_opts/point_0
                                           .6
