 DBCSR| Multiplication driver                                               BLAS
 DBCSR| Multrec recursion limit                                              512
 DBCSR| Multiplication stack size                                           1000
 DBCSR| Maximum elements for images                                    UNLIMITED
 DBCSR| Multiplicative factor virtual images                                   1
 DBCSR| Multiplication size stacks                                             3
 DBCSR| Number of 3D layers                                               SINGLE
 DBCSR| Use MPI memory allocation                                              T
 DBCSR| Use RMA algorithm                                                      F
 DBCSR| Use Communication thread                                               T
 DBCSR| Communication thread load                                             87


  **** **** ******  **  PROGRAM STARTED AT               2019-08-02 13:25:51.765
 ***** ** ***  *** **   PROGRAM STARTED ON        cpn-p28-39.cbls.ccr.buffalo.ed
 **    ****   ******    PROGRAM STARTED BY                              pavankum
 ***** **    ** ** **   PROGRAM PROCESS ID                                 45623
  **** **  *******  **  PROGRAM STARTED IN /projects/academic/mdupuis2/pavan/VAB
                                           _calculation/results_for_paper/7.TiO2
                                           _pbe_plus_U10/point_0.4

 CP2K| version string:                                          CP2K version 6.1
 CP2K| source code revision number:                                    svn:18464
 CP2K| cp2kflags: libint fftw3 libxc parallel mpi3 scalapack libderiv_max_am1=5 
 CP2K|            libint_max_am=6
 CP2K| is freely available from                            https://www.cp2k.org/
 CP2K| Program compiled at                          Fri Nov 30 14:17:09 EST 2018
 CP2K| Program compiled on                       srv-p22-12.cbls.ccr.buffalo.edu
 CP2K| Program compiled for                                                local
 CP2K| Data directory path    /projects/academic/mdupuis2/pavan/cp2k/cp2k-6.1/da
 CP2K| Input file name                                                 input.inp

 GLOBAL| Force Environment number                                              1
 GLOBAL| Basis set file name            /projects/academic/mdupuis2/pavan/BASIS_
 GLOBAL| Potential file name            /projects/academic/mdupuis2/pavan/POTENT
 GLOBAL| MM Potential file name                                     MM_POTENTIAL
 GLOBAL| Coordinate file name                           ./intermediate_point.xyz
 GLOBAL| Method name                                                        CP2K
 GLOBAL| Project name                                                    p_tio2_
 GLOBAL| Preferred FFT library                                             FFTW3
 GLOBAL| Preferred diagonalization lib.                                       SL
 GLOBAL| Run type                                                         ENERGY
 GLOBAL| All-to-all communication in single precision                          F
 GLOBAL| FFTs using library dependent lengths                                  T
 GLOBAL| Global print level                                               MEDIUM
 GLOBAL| Total number of message passing processes                            40
 GLOBAL| Number of threads for this process                                    1
 GLOBAL| This output is from process                                           0
 GLOBAL| CPU model name :  Intel(R) Xeon(R) CPU E5-2650 v3 @ 2.30GHz

 MEMORY| system memory details [Kb]
 MEMORY|                        rank 0           min           max       average
 MEMORY| MemTotal            131740876     131740876     131740876     131740876
 MEMORY| MemFree             125151124     114909432     125151124     120030278
 MEMORY| Buffers                497056        493904        497056        495480
 MEMORY| Cached                1811860       1811860      11997516       6904688
 MEMORY| Slab                   410164        410164        429260        419712
 MEMORY| SReclaimable           232724        232724        254824        243774
 MEMORY| MemLikelyFree       127692764     127655676     127692764     127674220


 *** Fundamental physical constants (SI units) ***

 *** Literature: B. J. Mohr and B. N. Taylor,
 ***             CODATA recommended values of the fundamental physical
 ***             constants: 2006, Web Version 5.1
 ***             http://physics.nist.gov/constants

 Speed of light in vacuum [m/s]                             2.99792458000000E+08
 Magnetic constant or permeability of vacuum [N/A**2]       1.25663706143592E-06
 Electric constant or permittivity of vacuum [F/m]          8.85418781762039E-12
 Planck constant (h) [J*s]                                  6.62606896000000E-34
 Planck constant (h-bar) [J*s]                              1.05457162825177E-34
 Elementary charge [C]                                      1.60217648700000E-19
 Electron mass [kg]                                         9.10938215000000E-31
 Electron g factor [ ]                                     -2.00231930436220E+00
 Proton mass [kg]                                           1.67262163700000E-27
 Fine-structure constant                                    7.29735253760000E-03
 Rydberg constant [1/m]                                     1.09737315685270E+07
 Avogadro constant [1/mol]                                  6.02214179000000E+23
 Boltzmann constant [J/K]                                   1.38065040000000E-23
 Atomic mass unit [kg]                                      1.66053878200000E-27
 Bohr radius [m]                                            5.29177208590000E-11

 *** Conversion factors ***

 [u] -> [a.u.]                                              1.82288848426455E+03
 [Angstrom] -> [Bohr] = [a.u.]                              1.88972613288564E+00
 [a.u.] = [Bohr] -> [Angstrom]                              5.29177208590000E-01
 [a.u.] -> [s]                                              2.41888432650478E-17
 [a.u.] -> [fs]                                             2.41888432650478E-02
 [a.u.] -> [J]                                              4.35974393937059E-18
 [a.u.] -> [N]                                              8.23872205491840E-08
 [a.u.] -> [K]                                              3.15774647902944E+05
 [a.u.] -> [kJ/mol]                                         2.62549961709828E+03
 [a.u.] -> [kcal/mol]                                       6.27509468713739E+02
 [a.u.] -> [Pa]                                             2.94210107994716E+13
 [a.u.] -> [bar]                                            2.94210107994716E+08
 [a.u.] -> [atm]                                            2.90362800883016E+08
 [a.u.] -> [eV]                                             2.72113838565563E+01
 [a.u.] -> [Hz]                                             6.57968392072181E+15
 [a.u.] -> [1/cm] (wave numbers)                            2.19474631370540E+05
 [a.u./Bohr**2] -> [1/cm]                                   5.14048714338585E+03
 

 CELL_TOP| Volume [angstrom^3]:                                         2867.349
 CELL_TOP| Vector a [angstrom    13.869     0.000     0.000    |a| =      13.869
 CELL_TOP| Vector b [angstrom     0.000    13.869     0.000    |b| =      13.869
 CELL_TOP| Vector c [angstrom     0.000     0.000    14.907    |c| =      14.907
 CELL_TOP| Angle (b,c), alpha [degree]:                                   90.000
 CELL_TOP| Angle (a,c), beta  [degree]:                                   90.000
 CELL_TOP| Angle (a,b), gamma [degree]:                                   90.000
 CELL_TOP| Numerically orthorhombic:                                         YES

 CELL| Volume [angstrom^3]:                                             2867.349
 CELL| Vector a [angstrom]:      13.869     0.000     0.000    |a| =      13.869
 CELL| Vector b [angstrom]:       0.000    13.869     0.000    |b| =      13.869
 CELL| Vector c [angstrom]:       0.000     0.000    14.907    |c| =      14.907
 CELL| Angle (b,c), alpha [degree]:                                       90.000
 CELL| Angle (a,c), beta  [degree]:                                       90.000
 CELL| Angle (a,b), gamma [degree]:                                       90.000
 CELL| Numerically orthorhombic:                                             YES

 CELL_REF| Volume [angstrom^3]:                                         2867.349
 CELL_REF| Vector a [angstrom    13.869     0.000     0.000    |a| =      13.869
 CELL_REF| Vector b [angstrom     0.000    13.869     0.000    |b| =      13.869
 CELL_REF| Vector c [angstrom     0.000     0.000    14.907    |c| =      14.907
 CELL_REF| Angle (b,c), alpha [degree]:                                   90.000
 CELL_REF| Angle (a,c), beta  [degree]:                                   90.000
 CELL_REF| Angle (a,b), gamma [degree]:                                   90.000
 CELL_REF| Numerically orthorhombic:                                         YES

 *******************************************************************************
 *******************************************************************************
 **                                                                           **
 **     #####                         ##              ##                      **
 **    ##   ##            ##          ##              ##                      **
 **   ##     ##                       ##            ######                    **
 **   ##     ##  ##   ##  ##   #####  ##  ##   ####   ##    #####    #####    **
 **   ##     ##  ##   ##  ##  ##      ## ##   ##      ##   ##   ##  ##   ##   **
 **   ##  ## ##  ##   ##  ##  ##      ####     ###    ##   ######   ######    **
 **    ##  ###   ##   ##  ##  ##      ## ##      ##   ##   ##       ##        **
 **     #######   #####   ##   #####  ##  ##  ####    ##    #####   ##        **
 **           ##                                                    ##        **
 **                                                                           **
 **                                                ... make the atoms dance   **
 **                                                                           **
 **            Copyright (C) by CP2K developers group (2000 - 2018)           **
 **                                                                           **
 *******************************************************************************

 DFT| Spin unrestricted (spin-polarized) Kohn-Sham calculation               UKS
 DFT| Multiplicity                                                             2
 DFT| Number of spin states                                                    2
 DFT| Charge                                                                  -1
 DFT| Self-interaction correction (SIC)                                       NO
 DFT| Cutoffs: density                                              1.000000E-10
 DFT|          gradient                                             1.000000E-10
 DFT|          tau                                                  1.000000E-10
 DFT|          cutoff_smoothing_range                               0.000000E+00
 DFT| XC density smoothing                                                  NONE
 DFT| XC derivatives                                                          PW

 DFT+U| Method                                                          MULLIKEN
 DFT+U| Check atomic kind information for details
 FUNCTIONAL| ROUTINE=NEW
 FUNCTIONAL| PBE:
 FUNCTIONAL| J.P.Perdew, K.Burke, M.Ernzerhof, Phys. Rev. Letter, vol. 77, n 18,
 FUNCTIONAL|  pp. 3865-3868, (1996){spin polarized}                             

 QS| Method:                                                                 GPW
 QS| Density plane wave grid type                        NON-SPHERICAL FULLSPACE
 QS| Number of grid levels:                                                   10
 QS| Density cutoff [a.u.]:                                                325.0
 QS| Multi grid cutoff [a.u.]: 1) grid level                               325.0
 QS|                           2) grid level                               108.3
 QS|                           3) grid level                                36.1
 QS|                           4) grid level                                12.0
 QS|                           5) grid level                                 4.0
 QS|                           6) grid level                                 1.3
 QS|                           7) grid level                                 0.4
 QS|                           8) grid level                                 0.1
 QS|                           9) grid level                                 0.0
 QS|                          10) grid level                                 0.0
 QS| Grid level progression factor:                                          3.0
 QS| Relative density cutoff [a.u.]:                                        30.0
 QS| Consistent realspace mapping and integration 
 QS| Interaction thresholds: eps_pgf_orb:                                1.0E-12
 QS|                         eps_filter_matrix:                          0.0E+00
 QS|                         eps_core_charge:                            1.0E-14
 QS|                         eps_rho_gspace:                             1.0E-12
 QS|                         eps_rho_rspace:                             1.0E-12
 QS|                         eps_gvg_rspace:                             1.0E-06
 QS|                         eps_ppl:                                    1.0E-02
 QS|                         eps_ppnl:                                   1.0E-08


 ATOMIC KIND INFORMATION

  1. Atomic kind: Ti                                    Number of atoms:      90

     Orbital Basis Set                                         SZV-MOLOPT-SR-GTH

       Number of orbital shell sets:                                           1
       Number of orbital shells:                                               4
       Number of primitive Cartesian functions:                                6
       Number of Cartesian basis functions:                                   11
       Number of spherical basis functions:                                   10
       Norm type:                                                              2

       Normalised Cartesian orbitals:

                        Set   Shell   Orbital            Exponent    Coefficient

                          1       1    2s                7.884570       0.015554
                                                         3.894698       0.963603
                                                         1.513589      -0.631435
                                                         0.596768      -0.343022
                                                         0.222222      -0.006534
                                                         0.077078       0.007652

                          1       2    3s                7.884570      -0.009340
                                                         3.894698       0.212624
                                                         1.513589      -0.258368
                                                         0.596768      -0.226206
                                                         0.222222       0.039438
                                                         0.077078       0.107179

                          1       3    3px               7.884570      -2.034794
                                                         3.894698       0.782008
                                                         1.513589       1.253903
                                                         0.596768       0.347823
                                                         0.222222       0.016778
                                                         0.077078      -0.000433
                          1       3    3py               7.884570      -2.034794
                                                         3.894698       0.782008
                                                         1.513589       1.253903
                                                         0.596768       0.347823
                                                         0.222222       0.016778
                                                         0.077078      -0.000433
                          1       3    3pz               7.884570      -2.034794
                                                         3.894698       0.782008
                                                         1.513589       1.253903
                                                         0.596768       0.347823
                                                         0.222222       0.016778
                                                         0.077078      -0.000433

                          1       4    4dx2              7.884570       3.047350
                                                         3.894698       3.289529
                                                         1.513589       1.060616
                                                         0.596768       0.249930
                                                         0.222222       0.038806
                                                         0.077078       0.002319
                          1       4    4dxy              7.884570       5.278165
                                                         3.894698       5.697631
                                                         1.513589       1.837041
                                                         0.596768       0.432892
                                                         0.222222       0.067214
                                                         0.077078       0.004017
                          1       4    4dxz              7.884570       5.278165
                                                         3.894698       5.697631
                                                         1.513589       1.837041
                                                         0.596768       0.432892
                                                         0.222222       0.067214
                                                         0.077078       0.004017
                          1       4    4dy2              7.884570       3.047350
                                                         3.894698       3.289529
                                                         1.513589       1.060616
                                                         0.596768       0.249930
                                                         0.222222       0.038806
                                                         0.077078       0.002319
                          1       4    4dyz              7.884570       5.278165
                                                         3.894698       5.697631
                                                         1.513589       1.837041
                                                         0.596768       0.432892
                                                         0.222222       0.067214
                                                         0.077078       0.004017
                          1       4    4dz2              7.884570       3.047350
                                                         3.894698       3.289529
                                                         1.513589       1.060616
                                                         0.596768       0.249930
                                                         0.222222       0.038806
                                                         0.077078       0.002319

     GTH Potential information for                                   GTH-PBE-q12

       Description:                       Goedecker-Teter-Hutter pseudopotential
                                           Goedecker et al., PRB 54, 1703 (1996)
                                          Hartwigsen et al., PRB 58, 3641 (1998)
                                                      Krack, TCA 114, 145 (2005)

       Gaussian exponent of the core charge distribution:               3.462604
       Electronic configuration (s p d ...):                           4   6   2

       Parameters of the local part of the GTH pseudopotential:

                          rloc        C1          C2          C3          C4
                        0.380000    8.711442   -0.700287

       Parameters of the non-local part of the GTH pseudopotential:

                   l      r(l)      h(i,j,l)

                   0    0.337771    2.575264    3.692971
                                    3.692971   -4.767605
                   1    0.242531   -4.630541    8.870875
                                    8.870875  -10.496161
                   2    0.243317   -9.406653

     A DFT+U correction is applied to atoms of this atomic kind:
       Angular quantum momentum number L:                                      2
       U(eff) = (U - J) value in [eV]:                                     9.987

  2. Atomic kind: O                                     Number of atoms:     180

     Orbital Basis Set                                            SZV-MOLOPT-GTH

       Number of orbital shell sets:                                           1
       Number of orbital shells:                                               2
       Number of primitive Cartesian functions:                                7
       Number of Cartesian basis functions:                                    4
       Number of spherical basis functions:                                    4
       Norm type:                                                              2

       Normalised Cartesian orbitals:

                        Set   Shell   Orbital            Exponent    Coefficient

                          1       1    2s               12.015955      -0.284499
                                                         5.108150      -0.322498
                                                         2.048398       0.148191
                                                         0.832382       0.295475
                                                         0.352316       0.150829
                                                         0.142977       0.015788
                                                         0.046761      -0.000019

                          1       2    3px              12.015955       1.192141
                                                         5.108150       1.354170
                                                         2.048398       0.897267
                                                         0.832382       0.408839
                                                         0.352316       0.116648
                                                         0.142977       0.022184
                                                         0.046761       0.000308
                          1       2    3py              12.015955       1.192141
                                                         5.108150       1.354170
                                                         2.048398       0.897267
                                                         0.832382       0.408839
                                                         0.352316       0.116648
                                                         0.142977       0.022184
                                                         0.046761       0.000308
                          1       2    3pz              12.015955       1.192141
                                                         5.108150       1.354170
                                                         2.048398       0.897267
                                                         0.832382       0.408839
                                                         0.352316       0.116648
                                                         0.142977       0.022184
                                                         0.046761       0.000308

     GTH Potential information for                                    GTH-PBE-q6

       Description:                       Goedecker-Teter-Hutter pseudopotential
                                           Goedecker et al., PRB 54, 1703 (1996)
                                          Hartwigsen et al., PRB 58, 3641 (1998)
                                                      Krack, TCA 114, 145 (2005)

       Gaussian exponent of the core charge distribution:               8.360253
       Electronic configuration (s p d ...):                               2   4

       Parameters of the local part of the GTH pseudopotential:

                          rloc        C1          C2          C3          C4
                        0.244554  -16.667215    2.487311

       Parameters of the non-local part of the GTH pseudopotential:

                   l      r(l)      h(i,j,l)

                   0    0.220956   18.337458
                   1    0.211332


 MOLECULE KIND INFORMATION


 All atoms are their own molecule, skipping detailed information


 TOTAL NUMBERS AND MAXIMUM NUMBERS

  Total number of            - Atomic kinds:                                   2
                             - Atoms:                                        270
                             - Shell sets:                                   270
                             - Shells:                                       720
                             - Primitive Cartesian functions:               1800
                             - Cartesian basis functions:                   1710
                             - Spherical basis functions:                   1620

  Maximum angular momentum of- Orbital basis functions:                        2
                             - Local part of the GTH pseudopotential:          2
                             - Non-local part of the GTH pseudopotential:      3


 MODULE QUICKSTEP:  ATOMIC COORDINATES IN angstrom

  Atom  Kind  Element       X           Y           Z          Z(eff)       Mass

       1     1 Ti  22    0.000148    0.000766    0.001164     12.00      47.8670
       2     1 Ti  22    2.313579    2.309317    1.488871     12.00      47.8670
       3     1 Ti  22    4.632314    0.009311    0.000545     12.00      47.8670
       4     1 Ti  22    6.934569    2.311564    1.490097     12.00      47.8670
       5     1 Ti  22    9.244583    0.001380   -0.000343     12.00      47.8670
       6     1 Ti  22   11.555433    2.313632    1.488824     12.00      47.8670
       7     1 Ti  22    0.000137    4.622470    0.001144     12.00      47.8670
       8     1 Ti  22    2.312346    6.933819    1.488429     12.00      47.8670
       9     1 Ti  22    4.624383    4.621580   -0.000344     12.00      47.8670
      10     1 Ti  22    6.936635    6.932430    1.488824     12.00      47.8670
      11     1 Ti  22    9.236856    4.613854    0.000592     12.00      47.8670
      12     1 Ti  22   11.554677    6.931671    1.488961     12.00      47.8670
      13     1 Ti  22    0.000076    9.246074    0.000459     12.00      47.8670
      14     1 Ti  22    2.314447   11.560446    1.488959     12.00      47.8670
      15     1 Ti  22    4.623767    9.246147    0.001165     12.00      47.8670
      16     1 Ti  22    6.932321   11.559576    1.488871     12.00      47.8670
      17     1 Ti  22    9.245474    9.246134    0.001145     12.00      47.8670
      18     1 Ti  22   11.556821   11.558343    1.488429     12.00      47.8670
      19     1 Ti  22   -0.000430    0.001054    2.976900     12.00      47.8670
      20     1 Ti  22    2.314973    2.307595    4.466670     12.00      47.8670
      21     1 Ti  22    4.631706    0.008701    2.977772     12.00      47.8670
      22     1 Ti  22    6.934640    2.311631    4.491623     12.00      47.8670
      23     1 Ti  22    9.245692    0.000593    2.979463     12.00      47.8670
      24     1 Ti  22   11.554767    2.316121    4.466560     12.00      47.8670
      25     1 Ti  22    0.000818    4.622292    2.976868     12.00      47.8670
      26     1 Ti  22    2.313368    6.933057    4.466185     12.00      47.8670
      27     1 Ti  22    4.623597    4.622688    2.979463     12.00      47.8670
      28     1 Ti  22    6.939123    6.931767    4.466559     12.00      47.8670
      29     1 Ti  22    9.237494    4.614492    2.977806     12.00      47.8670
      30     1 Ti  22   11.554394    6.931376    4.469052     12.00      47.8670
      31     1 Ti  22    0.000089    9.246086    2.977528     12.00      47.8670
      32     1 Ti  22    2.314797   11.560796    4.469056     12.00      47.8670
      33     1 Ti  22    4.624053    9.245566    2.976900     12.00      47.8670
      34     1 Ti  22    6.930609   11.560952    4.466669     12.00      47.8670
      35     1 Ti  22    9.245299    9.246814    2.976867     12.00      47.8670
      36     1 Ti  22   11.556066   11.559365    4.466185     12.00      47.8670
      37     1 Ti  22   -0.000352    0.000997    5.958194     12.00      47.8670
      38     1 Ti  22    2.313187    2.310447    7.453025     12.00      47.8670
      39     1 Ti  22    4.635264    0.012235    5.958664     12.00      47.8670
      40     1 Ti  22    6.934843    2.311828    7.463881     12.00      47.8670
      41     1 Ti  22    9.244417    0.003483    5.963711     12.00      47.8670
      42     1 Ti  22   11.557772    2.314544    7.453003     12.00      47.8670
      43     1 Ti  22    0.001920    4.623589    5.958274     12.00      47.8670
      44     1 Ti  22    2.313657    6.934496    7.453021     12.00      47.8670
      45     1 Ti  22    4.626490    4.621409    5.963710     12.00      47.8670
      46     1 Ti  22    6.937538    6.934770    7.453002     12.00      47.8670
      47     1 Ti  22    9.234148    4.611148    5.958664     12.00      47.8670
      48     1 Ti  22   11.551214    6.928183    7.454391     12.00      47.8670
      49     1 Ti  22    0.000134    9.246128    5.959496     12.00      47.8670
      50     1 Ti  22    2.318063   11.564061    7.454390     12.00      47.8670
      51     1 Ti  22    4.624002    9.245652    5.958193     12.00      47.8670
      52     1 Ti  22    6.933493   11.559155    7.453023     12.00      47.8670
      53     1 Ti  22    9.246609    9.247894    5.958272     12.00      47.8670
      54     1 Ti  22   11.557494   11.559637    7.453021     12.00      47.8670
      55     1 Ti  22    0.000413   -0.000352    8.948263     12.00      47.8670
      56     1 Ti  22    2.313232    2.309102   10.441119     12.00      47.8670
      57     1 Ti  22    4.637231    0.014190    8.947578     12.00      47.8670
      58     1 Ti  22    6.934775    2.311761   10.415914     12.00      47.8670
      59     1 Ti  22    9.242494    0.005930    8.946255     12.00      47.8670
      60     1 Ti  22   11.557225    2.315367   10.441200     12.00      47.8670
      61     1 Ti  22    0.001707    4.625475    8.948242     12.00      47.8670
      62     1 Ti  22    2.313334    6.933917   10.441329     12.00      47.8670
      63     1 Ti  22    4.628937    4.619483    8.946256     12.00      47.8670
      64     1 Ti  22    6.938366    6.934223   10.441201     12.00      47.8670
      65     1 Ti  22    9.232290    4.609291    8.947572     12.00      47.8670
      66     1 Ti  22   11.552680    6.929651   10.439472     12.00      47.8670
      67     1 Ti  22    0.000136    9.246128    8.947988     12.00      47.8670
      68     1 Ti  22    2.316566   11.562566   10.439473     12.00      47.8670
      69     1 Ti  22    4.622656    9.246421    8.948262     12.00      47.8670
      70     1 Ti  22    6.932133   11.559201   10.441119     12.00      47.8670
      71     1 Ti  22    9.248501    9.247670    8.948243     12.00      47.8670
      72     1 Ti  22   11.556923   11.559325   10.441330     12.00      47.8670
      73     1 Ti  22   -0.000764    0.000783   11.932216     12.00      47.8670
      74     1 Ti  22    2.314379    2.308486   13.420321     12.00      47.8670
      75     1 Ti  22    4.633913    0.010896   11.930805     12.00      47.8670
      76     1 Ti  22    6.934630    2.311622   13.395092     12.00      47.8670
      77     1 Ti  22    9.245268    0.001822   11.926570     12.00      47.8670
      78     1 Ti  22   11.554923    2.314789   13.420444     12.00      47.8670
      79     1 Ti  22    0.001798    4.623241   11.932203     12.00      47.8670
      80     1 Ti  22    2.312929    6.933468   13.420663     12.00      47.8670
      81     1 Ti  22    4.624827    4.622260   11.926570     12.00      47.8670
      82     1 Ti  22    6.937792    6.931921   13.420445     12.00      47.8670
      83     1 Ti  22    9.235431    4.612429   11.930828     12.00      47.8670
      84     1 Ti  22   11.554110    6.931097   13.418560     12.00      47.8670
      85     1 Ti  22    0.000101    9.246096   11.930744     12.00      47.8670
      86     1 Ti  22    2.315032   11.561031   13.418545     12.00      47.8670
      87     1 Ti  22    4.623783    9.245235   11.932217     12.00      47.8670
      88     1 Ti  22    6.931494   11.560369   13.420322     12.00      47.8670
      89     1 Ti  22    9.246256    9.247783   11.932206     12.00      47.8670
      90     1 Ti  22   11.556474   11.558926   13.420663     12.00      47.8670
      91     2 O    8    1.408245    1.409889   -0.000072      6.00      15.9994
      92     2 O    8    3.212731    3.213206   -0.000428      6.00      15.9994
      93     2 O    8    0.902563    3.720980    1.486395      6.00      15.9994
      94     2 O    8    3.719004    0.902567    1.485934      6.00      15.9994
      95     2 O    8    6.030293    1.407292    0.003187      6.00      15.9994
      96     2 O    8    7.838808    3.215807    0.003201      6.00      15.9994
      97     2 O    8    5.522847    3.723207    1.486006      6.00      15.9994
      98     2 O    8    8.346208    0.899846    1.486006      6.00      15.9994
      99     2 O    8   10.656337    1.409864   -0.000443      6.00      15.9994
     100     2 O    8   12.460844    3.213168   -0.000060      6.00      15.9994
     101     2 O    8   10.150063    3.720501    1.485934      6.00      15.9994
     102     2 O    8   12.966512    0.902092    1.486369      6.00      15.9994
     103     2 O    8    1.409550    6.032284   -0.000364      6.00      15.9994
     104     2 O    8    3.213781    7.836529   -0.000350      6.00      15.9994
     105     2 O    8    0.902714    8.343325    1.486389      6.00      15.9994
     106     2 O    8    3.719747    5.526321    1.486067      6.00      15.9994
     107     2 O    8    6.032864    6.033336   -0.000443      6.00      15.9994
     108     2 O    8    7.836169    7.837843   -0.000060      6.00      15.9994
     109     2 O    8    5.525092    8.343510    1.486369      6.00      15.9994
     110     2 O    8    8.343501    5.527062    1.485934      6.00      15.9994
     111     2 O    8   10.656289    6.033288    0.000135      6.00      15.9994
     112     2 O    8   12.460122    7.837120   -0.000351      6.00      15.9994
     113     2 O    8   10.146737    8.345199    1.486402      6.00      15.9994
     114     2 O    8   12.968200    5.523736    1.486403      6.00      15.9994
     115     2 O    8    1.408920   10.654920   -0.000357      6.00      15.9994
     116     2 O    8    3.212773   12.458773    0.000123      6.00      15.9994
     117     2 O    8    0.900872   12.968332    1.486384      6.00      15.9994
     118     2 O    8    3.722332   10.146872    1.486384      6.00      15.9994
     119     2 O    8    6.032891   10.654243   -0.000072      6.00      15.9994
     120     2 O    8    7.836208   12.458729   -0.000428      6.00      15.9994
     121     2 O    8    5.525568   12.965003    1.485934      6.00      15.9994
     122     2 O    8    8.343981   10.148562    1.486395      6.00      15.9994
     123     2 O    8   10.655286   10.655549   -0.000364      6.00      15.9994
     124     2 O    8   12.459530   12.459781   -0.000350      6.00      15.9994
     125     2 O    8   10.149322   12.965745    1.486067      6.00      15.9994
     126     2 O    8   12.966326   10.148714    1.486389      6.00      15.9994
     127     2 O    8    1.407907    1.410067    2.972952      6.00      15.9994
     128     2 O    8    3.212330    3.213098    2.973616      6.00      15.9994
     129     2 O    8    0.901864    3.720930    4.463465      6.00      15.9994
     130     2 O    8    3.713325    0.899888    4.457083      6.00      15.9994
     131     2 O    8    6.029953    1.406951    2.967139      6.00      15.9994
     132     2 O    8    7.839170    3.216169    2.967148      6.00      15.9994
     133     2 O    8    5.521240    3.724881    4.459998      6.00      15.9994
     134     2 O    8    8.347886    0.898239    4.459996      6.00      15.9994
     135     2 O    8   10.656763    1.409992    2.973669      6.00      15.9994
     136     2 O    8   12.461236    3.213045    2.972915      6.00      15.9994
     137     2 O    8   10.156024    3.723340    4.457034      6.00      15.9994
     138     2 O    8   12.967397    0.902356    4.463327      6.00      15.9994
     139     2 O    8    1.409503    6.032366    2.973818      6.00      15.9994
     140     2 O    8    3.213680    7.836535    2.973853      6.00      15.9994
     141     2 O    8    0.902536    8.343458    4.462728      6.00      15.9994
     142     2 O    8    3.718642    5.527443    4.461035      6.00      15.9994
     143     2 O    8    6.032992    6.033762    2.973670      6.00      15.9994
     144     2 O    8    7.836046    7.838234    2.972915      6.00      15.9994
     145     2 O    8    5.525358    8.344396    4.463327      6.00      15.9994
     146     2 O    8    8.346340    5.533023    4.457035      6.00      15.9994
     147     2 O    8   10.656803    6.033802    2.972689      6.00      15.9994
     148     2 O    8   12.460212    7.837210    2.973466      6.00      15.9994
     149     2 O    8   10.146548    8.345549    4.463236      6.00      15.9994
     150     2 O    8   12.968552    5.523546    4.463237      6.00      15.9994
     151     2 O    8    1.408823   10.654822    2.973452      6.00      15.9994
     152     2 O    8    3.212290   12.458290    2.972652      6.00      15.9994
     153     2 O    8    0.900623   12.968602    4.463081      6.00      15.9994
     154     2 O    8    3.722603   10.146623    4.463081      6.00      15.9994
     155     2 O    8    6.033068   10.653905    2.972952      6.00      15.9994
     156     2 O    8    7.836099   12.458329    2.973617      6.00      15.9994
     157     2 O    8    5.522887   12.959316    4.457082      6.00      15.9994
     158     2 O    8    8.343931   10.147861    4.463464      6.00      15.9994
     159     2 O    8   10.655368   10.655502    2.973818      6.00      15.9994
     160     2 O    8   12.459536   12.459680    2.973852      6.00      15.9994
     161     2 O    8   10.150447   12.964641    4.461034      6.00      15.9994
     162     2 O    8   12.966460   10.148536    4.462728      6.00      15.9994
     163     2 O    8    1.407975    1.409860    5.955935      6.00      15.9994
     164     2 O    8    3.212042    3.212839    5.952700      6.00      15.9994
     165     2 O    8    0.903062    3.721034    7.452122      6.00      15.9994
     166     2 O    8    3.717401    0.902574    7.444557      6.00      15.9994
     167     2 O    8    6.010209    1.387184    5.903299      6.00      15.9994
     168     2 O    8    7.859273    3.236265    5.903089      6.00      15.9994
     169     2 O    8    5.510504    3.736414    7.446543      6.00      15.9994
     170     2 O    8    8.359422    0.887495    7.446540      6.00      15.9994
     171     2 O    8   10.657201    1.410312    5.952361      6.00      15.9994
     172     2 O    8   12.461265    3.213308    5.956228      6.00      15.9994
     173     2 O    8   10.151936    3.720703    7.444480      6.00      15.9994
     174     2 O    8   12.966333    0.902195    7.451868      6.00      15.9994
     175     2 O    8    1.409118    6.032601    5.955058      6.00      15.9994
     176     2 O    8    3.213566    7.837017    5.954575      6.00      15.9994
     177     2 O    8    0.902725    8.343645    7.451181      6.00      15.9994
     178     2 O    8    3.715081    5.531587    7.448823      6.00      15.9994
     179     2 O    8    6.033313    6.034199    5.952360      6.00      15.9994
     180     2 O    8    7.836311    7.838262    5.956231      6.00      15.9994
     181     2 O    8    5.525193    8.343329    7.451866      6.00      15.9994
     182     2 O    8    8.343703    5.528932    7.444480      6.00      15.9994
     183     2 O    8   10.659300    6.036297    5.952641      6.00      15.9994
     184     2 O    8   12.461025    7.838021    5.953956      6.00      15.9994
     185     2 O    8   10.146933    8.345327    7.451634      6.00      15.9994
     186     2 O    8   12.968331    5.523929    7.451635      6.00      15.9994
     187     2 O    8    1.408093   10.654092    5.953751      6.00      15.9994
     188     2 O    8    3.209865   12.455864    5.952625      6.00      15.9994
     189     2 O    8    0.900876   12.968290    7.451419      6.00      15.9994
     190     2 O    8    3.722290   10.146877    7.451417      6.00      15.9994
     191     2 O    8    6.032864   10.653969    5.955940      6.00      15.9994
     192     2 O    8    7.835843   12.458038    5.952695      6.00      15.9994
     193     2 O    8    5.525578   12.963394    7.444555      6.00      15.9994
     194     2 O    8    8.344040   10.149060    7.452118      6.00      15.9994
     195     2 O    8   10.655605   10.655115    5.955055      6.00      15.9994
     196     2 O    8   12.460019   12.459565    5.954576      6.00      15.9994
     197     2 O    8   10.154588   12.961075    7.448822      6.00      15.9994
     198     2 O    8   12.966646   10.148722    7.451182      6.00      15.9994
     199     2 O    8    1.409148    1.409397    8.947795      6.00      15.9994
     200     2 O    8    3.212822    3.212457    8.947634      6.00      15.9994
     201     2 O    8    0.902337    3.720830   10.441396      6.00      15.9994
     202     2 O    8    3.715640    0.900879   10.444578      6.00      15.9994
     203     2 O    8    5.997094    1.374056    8.957271      6.00      15.9994
     204     2 O    8    7.872582    3.249570    8.957340      6.00      15.9994
     205     2 O    8    5.514285    3.732238   10.441542      6.00      15.9994
     206     2 O    8    8.355247    0.891281   10.441543      6.00      15.9994
     207     2 O    8   10.656506    1.410736    8.947478      6.00      15.9994
     208     2 O    8   12.460094    3.213754    8.947458      6.00      15.9994
     209     2 O    8   10.153790    3.722398   10.444538      6.00      15.9994
     210     2 O    8   12.967015    0.902540   10.441368      6.00      15.9994
     211     2 O    8    1.408967    6.032746    8.948914      6.00      15.9994
     212     2 O    8    3.213496    7.837269    8.949165      6.00      15.9994
     213     2 O    8    0.902428    8.343672   10.442134      6.00      15.9994
     214     2 O    8    3.716795    5.529603   10.441975      6.00      15.9994
     215     2 O    8    6.033737    6.033504    8.947478      6.00      15.9994
     216     2 O    8    7.836756    7.837092    8.947454      6.00      15.9994
     217     2 O    8    5.525541    8.344014   10.441367      6.00      15.9994
     218     2 O    8    8.345397    5.530788   10.444536      6.00      15.9994
     219     2 O    8   10.659959    6.036955    8.947213      6.00      15.9994
     220     2 O    8   12.461260    7.838256    8.949011      6.00      15.9994
     221     2 O    8   10.146466    8.345372   10.441786      6.00      15.9994
     222     2 O    8   12.968375    5.523464   10.441787      6.00      15.9994
     223     2 O    8    1.407891   10.653890    8.948983      6.00      15.9994
     224     2 O    8    3.209215   12.455212    8.947128      6.00      15.9994
     225     2 O    8    0.900835   12.968741   10.441783      6.00      15.9994
     226     2 O    8    3.722743   10.146835   10.441781      6.00      15.9994
     227     2 O    8    6.032402   10.655141    8.947786      6.00      15.9994
     228     2 O    8    7.835463   12.458816    8.947632      6.00      15.9994
     229     2 O    8    5.523880   12.961628   10.444577      6.00      15.9994
     230     2 O    8    8.343832   10.148334   10.441394      6.00      15.9994
     231     2 O    8   10.655750   10.654963    8.948914      6.00      15.9994
     232     2 O    8   12.460270   12.459495    8.949165      6.00      15.9994
     233     2 O    8   10.152606   12.962792   10.441975      6.00      15.9994
     234     2 O    8   12.966674   10.148426   10.442134      6.00      15.9994
     235     2 O    8    1.408406    1.410037   11.931660      6.00      15.9994
     236     2 O    8    3.212492    3.212820   11.931953      6.00      15.9994
     237     2 O    8    0.902296    3.720841   13.419564      6.00      15.9994
     238     2 O    8    3.715785    0.900996   13.422692      6.00      15.9994
     239     2 O    8    6.017141    1.394122   11.965247      6.00      15.9994
     240     2 O    8    7.852225    3.229218   11.965304      6.00      15.9994
     241     2 O    8    5.522124    3.723992   13.420666      6.00      15.9994
     242     2 O    8    8.346995    0.899122   13.420667      6.00      15.9994
     243     2 O    8   10.656697    1.410350   11.931908      6.00      15.9994
     244     2 O    8   12.460782    3.213107   11.931621      6.00      15.9994
     245     2 O    8   10.153376    3.722133   13.422699      6.00      15.9994
     246     2 O    8   12.966838    0.902284   13.419560      6.00      15.9994
     247     2 O    8    1.409408    6.032442   11.931933      6.00      15.9994
     248     2 O    8    3.213677    7.836726   11.931918      6.00      15.9994
     249     2 O    8    0.902687    8.343377   13.419863      6.00      15.9994
     250     2 O    8    3.719382    5.526755   13.419970      6.00      15.9994
     251     2 O    8    6.033350    6.033696   11.931906      6.00      15.9994
     252     2 O    8    7.836109    7.837780   11.931620      6.00      15.9994
     253     2 O    8    5.525284    8.343837   13.419560      6.00      15.9994
     254     2 O    8    8.345133    5.530374   13.422699      6.00      15.9994
     255     2 O    8   10.658139    6.035137   11.932918      6.00      15.9994
     256     2 O    8   12.460431    7.837429   11.931963      6.00      15.9994
     257     2 O    8   10.146668    8.345240   13.419701      6.00      15.9994
     258     2 O    8   12.968242    5.523667   13.419701      6.00      15.9994
     259     2 O    8    1.408637   10.654636   11.931936      6.00      15.9994
     260     2 O    8    3.210975   12.456973   11.932909      6.00      15.9994
     261     2 O    8    0.900857   12.968432   13.419688      6.00      15.9994
     262     2 O    8    3.722433   10.146856   13.419688      6.00      15.9994
     263     2 O    8    6.033039   10.654402   11.931658      6.00      15.9994
     264     2 O    8    7.835822   12.458489   11.931951      6.00      15.9994
     265     2 O    8    5.523997   12.961779   13.422694      6.00      15.9994
     266     2 O    8    8.343842   10.148294   13.419564      6.00      15.9994
     267     2 O    8   10.655444   10.655405   11.931933      6.00      15.9994
     268     2 O    8   12.459727   12.459676   11.931919      6.00      15.9994
     269     2 O    8   10.149757   12.965380   13.419970      6.00      15.9994
     270     2 O    8   12.966378   10.148687   13.419863      6.00      15.9994




 SCF PARAMETERS         Density guess:                                   RESTART
                        --------------------------------------------------------
                        max_scf:                                             500
                        max_scf_history:                                       0
                        max_diis:                                              4
                        --------------------------------------------------------
                        eps_scf:                                        1.00E-05
                        eps_scf_history:                                0.00E+00
                        eps_diis:                                       5.00E-01
                        eps_eigval:                                     1.00E-05
                        --------------------------------------------------------
                        level_shift [a.u.]:                                 0.00
                        --------------------------------------------------------
                        Mixing method:                            BROYDEN_MIXING
                                                charge density mixing in g-space
                        --------------------------------------------------------
                        Outer loop SCF in use 
                        No variables optimised in outer loop
                        eps_scf                                         1.00E-05
                        max_scf                                              500
                        No outer loop optimization
                        step_size                                       5.00E-01

 PW_GRID| Information for grid number                                          1
 PW_GRID| Grid distributed over                                    40 processors
 PW_GRID| Real space group dimensions                                    40    1
 PW_GRID| the grid is blocked:                                                NO
 PW_GRID| Cutoff [a.u.]                                                    325.0
 PW_GRID| spherical cutoff:                                                   NO
 PW_GRID|   Bounds   1           -108     107                Points:         216
 PW_GRID|   Bounds   2           -108     107                Points:         216
 PW_GRID|   Bounds   3           -115     115                Points:         231
 PW_GRID| Volume element (a.u.^3)  0.1795E-02     Volume (a.u.^3)     19349.8300
 PW_GRID| Grid span                                                    FULLSPACE
 PW_GRID|   Distribution                         Average         Max         Min
 PW_GRID|   G-Vectors                           269438.4      269568      269352
 PW_GRID|   G-Rays                                1247.4        1248        1247
 PW_GRID|   Real Space Points                   269438.4      299376      249480

 PW_GRID| Information for grid number                                          2
 PW_GRID| Grid distributed over                                    40 processors
 PW_GRID| Real space group dimensions                                    40    1
 PW_GRID| the grid is blocked:                                                NO
 PW_GRID| Cutoff [a.u.]                                                    108.3
 PW_GRID| spherical cutoff:                                                   NO
 PW_GRID|   Bounds   1            -63      62                Points:         126
 PW_GRID|   Bounds   2            -63      62                Points:         126
 PW_GRID|   Bounds   3            -66      65                Points:         132
 PW_GRID| Volume element (a.u.^3)  0.9233E-02     Volume (a.u.^3)     19349.8300
 PW_GRID| Grid span                                                    FULLSPACE
 PW_GRID|   Distribution                         Average         Max         Min
 PW_GRID|   G-Vectors                            52390.8       52794       52290
 PW_GRID|   G-Rays                                 415.8         419         415
 PW_GRID|   Real Space Points                    52390.8       66528       49896

 PW_GRID| Information for grid number                                          3
 PW_GRID| Grid distributed over                                    40 processors
 PW_GRID| Real space group dimensions                                    40    1
 PW_GRID| the grid is blocked:                                                NO
 PW_GRID| Cutoff [a.u.]                                                     36.1
 PW_GRID| spherical cutoff:                                                   NO
 PW_GRID|   Bounds   1            -36      35                Points:          72
 PW_GRID|   Bounds   2            -36      35                Points:          72
 PW_GRID|   Bounds   3            -38      38                Points:          77
 PW_GRID| Volume element (a.u.^3)  0.4848E-01     Volume (a.u.^3)     19349.8300
 PW_GRID| Grid span                                                    FULLSPACE
 PW_GRID|   Distribution                         Average         Max         Min
 PW_GRID|   G-Vectors                             9979.2       10008        9936
 PW_GRID|   G-Rays                                 138.6         139         138
 PW_GRID|   Real Space Points                     9979.2       11088        5544

 PW_GRID| Information for grid number                                          4
 PW_GRID| Grid distributed over                                    40 processors
 PW_GRID| Real space group dimensions                                    40    1
 PW_GRID| the grid is blocked:                                                NO
 PW_GRID| Cutoff [a.u.]                                                     12.0
 PW_GRID| spherical cutoff:                                                   NO
 PW_GRID|   Bounds   1            -21      20                Points:          42
 PW_GRID|   Bounds   2            -21      20                Points:          42
 PW_GRID|   Bounds   3            -22      21                Points:          44
 PW_GRID| Volume element (a.u.^3)  0.2493         Volume (a.u.^3)     19349.8300
 PW_GRID| Grid span                                                    FULLSPACE
 PW_GRID|   Distribution                         Average         Max         Min
 PW_GRID|   G-Vectors                             1940.4        2058        1848
 PW_GRID|   G-Rays                                  46.2          49          44
 PW_GRID|   Real Space Points                     1940.4        3696        1848

 PW_GRID| Information for grid number                                          5
 PW_GRID| Grid distributed over                                    40 processors
 PW_GRID| Real space group dimensions                                     5    8
 PW_GRID| the grid is blocked:                                                NO
 PW_GRID| Cutoff [a.u.]                                                      4.0
 PW_GRID| spherical cutoff:                                                   NO
 PW_GRID|   Bounds   1            -12      11                Points:          24
 PW_GRID|   Bounds   2            -12      11                Points:          24
 PW_GRID|   Bounds   3            -12      12                Points:          25
 PW_GRID| Volume element (a.u.^3)   1.344         Volume (a.u.^3)     19349.8300
 PW_GRID| Grid span                                                    FULLSPACE
 PW_GRID|   Distribution                         Average         Max         Min
 PW_GRID|   G-Vectors                              360.0         408         336
 PW_GRID|   G-Rays                                  15.0          17          14
 PW_GRID|   Real Space Points                      360.0         375         300

 PW_GRID| Information for grid number                                          6
 PW_GRID| Grid distributed over                                    40 processors
 PW_GRID| Real space group dimensions                                     5    8
 PW_GRID| the grid is blocked:                                                NO
 PW_GRID| Cutoff [a.u.]                                                      1.3
 PW_GRID| spherical cutoff:                                                   NO
 PW_GRID|   Bounds   1             -7       6                Points:          14
 PW_GRID|   Bounds   2             -7       6                Points:          14
 PW_GRID|   Bounds   3             -7       7                Points:          15
 PW_GRID| Volume element (a.u.^3)   6.582         Volume (a.u.^3)     19349.8300
 PW_GRID| Grid span                                                    FULLSPACE
 PW_GRID|   Distribution                         Average         Max         Min
 PW_GRID|   G-Vectors                               73.5          98          56
 PW_GRID|   G-Rays                                   5.2           7           4
 PW_GRID|   Real Space Points                       73.5          90          30

 PW_GRID| Information for grid number                                          7
 PW_GRID| Grid distributed over                                    40 processors
 PW_GRID| Real space group dimensions                                     5    8
 PW_GRID| the grid is blocked:                                                NO
 PW_GRID| Cutoff [a.u.]                                                      0.4
 PW_GRID| spherical cutoff:                                                   NO
 PW_GRID|   Bounds   1             -3       3                Points:           7
 PW_GRID|   Bounds   2             -3       3                Points:           7
 PW_GRID|   Bounds   3             -4       4                Points:           9
 PW_GRID| Volume element (a.u.^3)   43.88         Volume (a.u.^3)     19349.8300
 PW_GRID| Grid span                                                    FULLSPACE
 PW_GRID|   Distribution                         Average         Max         Min
 PW_GRID|   G-Vectors                               11.0          28           0
 PW_GRID|   G-Rays                                   1.6           4           0
 PW_GRID|   Real Space Points                       11.0          18           0

 PW_GRID| Information for grid number                                          8
 PW_GRID| Grid distributed over                                    40 processors
 PW_GRID| Real space group dimensions                                     5    8
 PW_GRID| the grid is blocked:                                                NO
 PW_GRID| Cutoff [a.u.]                                                      0.1
 PW_GRID| spherical cutoff:                                                   NO
 PW_GRID|   Bounds   1             -2       2                Points:           5
 PW_GRID|   Bounds   2             -2       2                Points:           5
 PW_GRID|   Bounds   3             -2       2                Points:           5
 PW_GRID| Volume element (a.u.^3)   154.8         Volume (a.u.^3)     19349.8300
 PW_GRID| Grid span                                                    FULLSPACE
 PW_GRID|   Distribution                         Average         Max         Min
 PW_GRID|   G-Vectors                                3.1          10           0
 PW_GRID|   G-Rays                                   0.6           2           0
 PW_GRID|   Real Space Points                        3.1           5           0

 PW_GRID| Information for grid number                                          9
 PW_GRID| Grid distributed over                                    40 processors
 PW_GRID| Real space group dimensions                                     5    8
 PW_GRID| the grid is blocked:                                                NO
 PW_GRID| Cutoff [a.u.]                                                      0.0
 PW_GRID| spherical cutoff:                                                   NO
 PW_GRID|   Bounds   1             -1       1                Points:           3
 PW_GRID|   Bounds   2             -1       1                Points:           3
 PW_GRID|   Bounds   3             -1       1                Points:           3
 PW_GRID| Volume element (a.u.^3)   716.7         Volume (a.u.^3)     19349.8300
 PW_GRID| Grid span                                                    FULLSPACE
 PW_GRID|   Distribution                         Average         Max         Min
 PW_GRID|   G-Vectors                                0.7           3           0
 PW_GRID|   G-Rays                                   0.2           1           0
 PW_GRID|   Real Space Points                        0.7           3           0

 PW_GRID| Information for grid number                                         10
 PW_GRID| Grid distributed over                                    40 processors
 PW_GRID| Real space group dimensions                                     5    8
 PW_GRID| the grid is blocked:                                                NO
 PW_GRID| Cutoff [a.u.]                                                      0.0
 PW_GRID| spherical cutoff:                                                   NO
 PW_GRID|   Bounds   1              0       0                Points:           1
 PW_GRID|   Bounds   2              0       0                Points:           1
 PW_GRID|   Bounds   3              0       0                Points:           1
 PW_GRID| Volume element (a.u.^3)  0.1935E+05     Volume (a.u.^3)     19349.8300
 PW_GRID| Grid span                                                    FULLSPACE
 PW_GRID|   Distribution                         Average         Max         Min
 PW_GRID|   G-Vectors                                0.0           1           0
 PW_GRID|   G-Rays                                   0.0           1           0
 PW_GRID|   Real Space Points                        0.0           1           0

 POISSON| Solver                                                        PERIODIC
 POISSON| Periodicity                                                        XYZ

 RS_GRID| Information for grid number                                          1
 RS_GRID|   Bounds   1           -108     107                Points:         216
 RS_GRID|   Bounds   2           -108     107                Points:         216
 RS_GRID|   Bounds   3           -115     115                Points:         231
 RS_GRID| Real space distribution over                                  5 groups
 RS_GRID| Real space distribution along direction                              2
 RS_GRID| Border size                                                         27
 RS_GRID| Real space distribution over                                  8 groups
 RS_GRID| Real space distribution along direction                              3
 RS_GRID| Border size                                                         27
 RS_GRID|   Distribution                         Average         Max         Min
 RS_GRID|   Planes                                  97.2          98          97
 RS_GRID|   Distribution                         Average         Max         Min
 RS_GRID|   Planes                                  82.9          83          82

 RS_GRID| Information for grid number                                          2
 RS_GRID|   Bounds   1            -63      62                Points:         126
 RS_GRID|   Bounds   2            -63      62                Points:         126
 RS_GRID|   Bounds   3            -66      65                Points:         132
 RS_GRID| Real space distribution over                                  5 groups
 RS_GRID| Real space distribution along direction                              2
 RS_GRID| Border size                                                         26
 RS_GRID| Real space distribution over                                  8 groups
 RS_GRID| Real space distribution along direction                              3
 RS_GRID| Border size                                                         26
 RS_GRID|   Distribution                         Average         Max         Min
 RS_GRID|   Planes                                  77.2          78          77
 RS_GRID|   Distribution                         Average         Max         Min
 RS_GRID|   Planes                                  68.5          69          68

 RS_GRID| Information for grid number                                          3
 RS_GRID|   Bounds   1            -36      35                Points:          72
 RS_GRID|   Bounds   2            -36      35                Points:          72
 RS_GRID|   Bounds   3            -38      38                Points:          77
 RS_GRID| Real space fully replicated
 RS_GRID| Group size                                                           1

 RS_GRID| Information for grid number                                          4
 RS_GRID|   Bounds   1            -21      20                Points:          42
 RS_GRID|   Bounds   2            -21      20                Points:          42
 RS_GRID|   Bounds   3            -22      21                Points:          44
 RS_GRID| Real space fully replicated
 RS_GRID| Group size                                                           1

 RS_GRID| Information for grid number                                          5
 RS_GRID|   Bounds   1            -12      11                Points:          24
 RS_GRID|   Bounds   2            -12      11                Points:          24
 RS_GRID|   Bounds   3            -12      12                Points:          25
 RS_GRID| Real space fully replicated
 RS_GRID| Group size                                                           1

 RS_GRID| Information for grid number                                          6
 RS_GRID|   Bounds   1             -7       6                Points:          14
 RS_GRID|   Bounds   2             -7       6                Points:          14
 RS_GRID|   Bounds   3             -7       7                Points:          15
 RS_GRID| Real space fully replicated
 RS_GRID| Group size                                                           1

 RS_GRID| Information for grid number                                          7
 RS_GRID|   Bounds   1             -3       3                Points:           7
 RS_GRID|   Bounds   2             -3       3                Points:           7
 RS_GRID|   Bounds   3             -4       4                Points:           9
 RS_GRID| Real space fully replicated
 RS_GRID| Group size                                                           1

 RS_GRID| Information for grid number                                          8
 RS_GRID|   Bounds   1             -2       2                Points:           5
 RS_GRID|   Bounds   2             -2       2                Points:           5
 RS_GRID|   Bounds   3             -2       2                Points:           5
 RS_GRID| Real space fully replicated
 RS_GRID| Group size                                                           1

 RS_GRID| Information for grid number                                          9
 RS_GRID|   Bounds   1             -1       1                Points:           3
 RS_GRID|   Bounds   2             -1       1                Points:           3
 RS_GRID|   Bounds   3             -1       1                Points:           3
 RS_GRID| Real space fully replicated
 RS_GRID| Group size                                                           1

 RS_GRID| Information for grid number                                         10
 RS_GRID|   Bounds   1              0       0                Points:           1
 RS_GRID|   Bounds   2              0       0                Points:           1
 RS_GRID|   Bounds   3              0       0                Points:           1
 RS_GRID| Real space fully replicated
 RS_GRID| Group size                                                           1

 Spin 1

 Number of electrons:                                                       1081
 Number of occupied orbitals:                                               1081
 Number of molecular orbitals:                                              1081

 Spin 2

 Number of electrons:                                                       1080
 Number of occupied orbitals:                                               1080
 Number of molecular orbitals:                                              1080

 Number of orbital functions:                                               1620
 Number of independent orbital functions:                                   1620

 Extrapolation method: initial_guess


 SCF WAVEFUNCTION OPTIMIZATION

  Step     Update method      Time    Convergence         Total energy    Change
  ------------------------------------------------------------------------------
     1 NoMix/Diag. 0.40E+00    5.8     0.01186870     -8111.7672095526 -8.11E+03
     2 Broy./Diag. 0.40E+00    9.7     0.00661425     -8111.7624926563  4.72E-03
     3 Broy./Diag. 0.40E+00    9.7     0.00186349     -8111.7716524678 -9.16E-03
     4 Broy./Diag. 0.40E+00    9.7     0.00085307     -8111.7774883281 -5.84E-03
     5 Broy./Diag. 0.40E+00    9.7     0.00027441     -8111.7770393095  4.49E-04
     6 Broy./Diag. 0.40E+00    9.8     0.00022717     -8111.7728906736  4.15E-03
     7 Broy./Diag. 0.40E+00    9.6     0.00014655     -8111.7722003013  6.90E-04
     8 Broy./Diag. 0.40E+00   10.1     0.00005646     -8111.7720892102  1.11E-04
     9 Broy./Diag. 0.40E+00    9.7     0.00004148     -8111.7718142248  2.75E-04
    10 Broy./Diag. 0.40E+00    9.7     0.00001769     -8111.7719938757 -1.80E-04
    11 Broy./Diag. 0.40E+00    9.7     0.00001459     -8111.7720838121 -8.99E-05
    12 Broy./Diag. 0.40E+00    9.7     0.00000783     -8111.7721460375 -6.22E-05

  *** SCF run converged in    12 steps ***


  Electronic density on regular grids:      -2160.9999999994        0.0000000006
  Core density on regular grids:             2159.9999999994       -0.0000000006
  Total charge density on r-space grids:       -1.0000000000
  Total charge density g-space grids:          -1.0000000000

  Overlap energy of the core charge distribution:               0.00000000000198
  Self energy of the core charge distribution:             -17095.63438313942970
  Core Hamiltonian energy:                                   4650.80562658454255
  Hartree energy:                                            5621.21902054689599
  Exchange-correlation energy:                              -1307.30599662306804

  DFT+U energy:                                                19.14358659358737

  Total energy:                                             -8111.77214603746870

  outer SCF iter =    1 RMS gradient =   0.78E-05 energy =      -8111.7721460375
  outer SCF loop converged in   1 iterations or   12 steps


  Integrated absolute spin density  :                               1.0875556321
  Ideal and single determinant S**2 :                    0.750000       0.754617

 !-----------------------------------------------------------------------------!
                     Mulliken Population Analysis

 #  Atom  Element  Kind  Atomic population (alpha,beta) Net charge  Spin moment
       1     Ti       1         5.244791     5.244796     1.510412    -0.000005
       2     Ti       1         5.244712     5.244710     1.510578     0.000002
       3     Ti       1         5.245160     5.245162     1.509678    -0.000002
       4     Ti       1         5.245486     5.244951     1.509562     0.000535
       5     Ti       1         5.244701     5.244704     1.510595    -0.000003
       6     Ti       1         5.244719     5.244717     1.510565     0.000002
       7     Ti       1         5.244786     5.244791     1.510423    -0.000005
       8     Ti       1         5.244822     5.244837     1.510342    -0.000015
       9     Ti       1         5.244701     5.244704     1.510595    -0.000003
      10     Ti       1         5.244719     5.244717     1.510565     0.000002
      11     Ti       1         5.245160     5.245162     1.509678    -0.000002
      12     Ti       1         5.245359     5.245369     1.509272    -0.000010
      13     Ti       1         5.245094     5.245103     1.509803    -0.000009
      14     Ti       1         5.245362     5.245373     1.509265    -0.000010
      15     Ti       1         5.244792     5.244796     1.510412    -0.000005
      16     Ti       1         5.244712     5.244710     1.510578     0.000002
      17     Ti       1         5.244786     5.244791     1.510422    -0.000005
      18     Ti       1         5.244822     5.244837     1.510342    -0.000015
      19     Ti       1         5.244715     5.244721     1.510564    -0.000006
      20     Ti       1         5.244543     5.244556     1.510902    -0.000013
      21     Ti       1         5.244747     5.244948     1.510305    -0.000201
      22     Ti       1         5.243235     5.246967     1.509798    -0.003732
      23     Ti       1         5.244758     5.244781     1.510461    -0.000024
      24     Ti       1         5.244541     5.244554     1.510905    -0.000013
      25     Ti       1         5.244717     5.244723     1.510560    -0.000006
      26     Ti       1         5.244794     5.244769     1.510437     0.000026
      27     Ti       1         5.244758     5.244781     1.510461    -0.000024
      28     Ti       1         5.244541     5.244554     1.510905    -0.000013
      29     Ti       1         5.244749     5.244951     1.510300    -0.000201
      30     Ti       1         5.245434     5.245212     1.509354     0.000222
      31     Ti       1         5.245079     5.245064     1.509857     0.000015
      32     Ti       1         5.245436     5.245214     1.509349     0.000222
      33     Ti       1         5.244715     5.244721     1.510564    -0.000006
      34     Ti       1         5.244543     5.244555     1.510902    -0.000013
      35     Ti       1         5.244717     5.244723     1.510560    -0.000006
      36     Ti       1         5.244794     5.244769     1.510437     0.000026
      37     Ti       1         5.244740     5.244735     1.510525     0.000006
      38     Ti       1         5.244640     5.244681     1.510678    -0.000041
      39     Ti       1         5.247931     5.243874     1.508194     0.004057
      40     Ti       1         5.786048     4.791157     1.422795     0.994891
      41     Ti       1         5.246264     5.244911     1.508825     0.001353
      42     Ti       1         5.244620     5.244662     1.510718    -0.000041
      43     Ti       1         5.244740     5.244734     1.510526     0.000006
      44     Ti       1         5.244815     5.244662     1.510523     0.000153
      45     Ti       1         5.246264     5.244912     1.508824     0.001353
      46     Ti       1         5.244620     5.244662     1.510718    -0.000041
      47     Ti       1         5.247935     5.243880     1.508186     0.004055
      48     Ti       1         5.246567     5.245340     1.508093     0.001226
      49     Ti       1         5.245319     5.245007     1.509674     0.000312
      50     Ti       1         5.246573     5.245346     1.508080     0.001227
      51     Ti       1         5.244740     5.244735     1.510525     0.000006
      52     Ti       1         5.244640     5.244681     1.510679    -0.000041
      53     Ti       1         5.244740     5.244734     1.510526     0.000006
      54     Ti       1         5.244815     5.244662     1.510524     0.000153
      55     Ti       1         5.244836     5.244832     1.510332     0.000004
      56     Ti       1         5.245193     5.245211     1.509596    -0.000018
      57     Ti       1         5.248324     5.243426     1.508250     0.004897
      58     Ti       1         5.245851     5.250257     1.503892    -0.004405
      59     Ti       1         5.246956     5.245579     1.507466     0.001377
      60     Ti       1         5.245187     5.245205     1.509608    -0.000018
      61     Ti       1         5.244835     5.244832     1.510333     0.000003
      62     Ti       1         5.244666     5.244649     1.510686     0.000017
      63     Ti       1         5.246956     5.245580     1.507464     0.001377
      64     Ti       1         5.245187     5.245205     1.509607    -0.000018
      65     Ti       1         5.248320     5.243429     1.508252     0.004891
      66     Ti       1         5.245670     5.245407     1.508922     0.000263
      67     Ti       1         5.245327     5.245000     1.509674     0.000327
      68     Ti       1         5.245679     5.245416     1.508905     0.000263
      69     Ti       1         5.244836     5.244832     1.510332     0.000004
      70     Ti       1         5.245193     5.245211     1.509596    -0.000018
      71     Ti       1         5.244835     5.244832     1.510333     0.000003
      72     Ti       1         5.244666     5.244649     1.510686     0.000017
      73     Ti       1         5.244812     5.244818     1.510370    -0.000006
      74     Ti       1         5.244858     5.244856     1.510286     0.000002
      75     Ti       1         5.244757     5.244862     1.510381    -0.000105
      76     Ti       1         5.246040     5.245381     1.508579     0.000659
      77     Ti       1         5.245373     5.245389     1.509238    -0.000017
      78     Ti       1         5.244862     5.244860     1.510278     0.000002
      79     Ti       1         5.244819     5.244825     1.510356    -0.000006
      80     Ti       1         5.244773     5.244789     1.510438    -0.000017
      81     Ti       1         5.245373     5.245390     1.509237    -0.000017
      82     Ti       1         5.244862     5.244860     1.510278     0.000002
      83     Ti       1         5.244757     5.244862     1.510380    -0.000105
      84     Ti       1         5.245300     5.245305     1.509395    -0.000004
      85     Ti       1         5.245021     5.245002     1.509977     0.000018
      86     Ti       1         5.245306     5.245311     1.509383    -0.000004
      87     Ti       1         5.244812     5.244818     1.510370    -0.000006
      88     Ti       1         5.244858     5.244856     1.510286     0.000002
      89     Ti       1         5.244819     5.244824     1.510357    -0.000006
      90     Ti       1         5.244773     5.244789     1.510438    -0.000017
      91     O        2         3.379698     3.379694    -0.759392     0.000004
      92     O        2         3.379836     3.379839    -0.759675    -0.000002
      93     O        2         3.379760     3.379762    -0.759521    -0.000002
      94     O        2         3.379912     3.379908    -0.759819     0.000004
      95     O        2         3.380750     3.380811    -0.761561    -0.000060
      96     O        2         3.380753     3.380813    -0.761566    -0.000060
      97     O        2         3.379645     3.379690    -0.759335    -0.000044
      98     O        2         3.379646     3.379690    -0.759335    -0.000044
      99     O        2         3.379835     3.379838    -0.759673    -0.000002
     100     O        2         3.379685     3.379681    -0.759367     0.000004
     101     O        2         3.379910     3.379906    -0.759816     0.000004
     102     O        2         3.379765     3.379768    -0.759533    -0.000002
     103     O        2         3.379737     3.379732    -0.759469     0.000006
     104     O        2         3.379730     3.379724    -0.759455     0.000006
     105     O        2         3.379856     3.379857    -0.759713    -0.000001
     106     O        2         3.380210     3.380202    -0.760412     0.000008
     107     O        2         3.379835     3.379838    -0.759673    -0.000002
[...]
       0.22519573       0.22538223       0.22574595       0.22617694
       0.22705283       0.22739022       0.22767249       0.22793960
       0.22794585       0.22920297       0.23036645       0.23817552
       0.23836226       0.23858917       0.23862465       0.23884511
       0.23884696       0.23908092       0.23909420       0.23926791
       0.23946113       0.23964096       0.23965201       0.23978918
       0.24030555       0.24104779       0.24144934       0.24176101
       0.24198725       0.24210139       0.24235873       0.24257018
       0.24275583       0.24287638       0.24333436       0.24403434
       0.24408374       0.24450622       0.24481879       0.24558620
       0.24575239       0.24581148       0.24582056       0.24598432
       0.24620446       0.24633960       0.24649061       0.24664664
       0.24702988       0.24705046       0.24713846       0.24715551
       0.24932668       0.25197174       0.25207414       0.25220847
       0.25233890       0.25243901       0.25253535       0.25268290
       0.25281551       0.25289061       0.25305507       0.25325650
       0.25327459       0.25350362       0.25362004       0.25370492
       0.25441976       0.25442814       0.25486434       0.25492258
       0.25505810       0.25542401       0.25546977       0.25590099
       0.25606023       0.25657255       0.25687816       0.25730832
       0.25787706       0.25797789       0.25818808       0.25986407
       0.26046611       0.26059408       0.26068897       0.26090411
       0.26103240       0.26135387       0.26143953       0.26151266
       0.26178128       0.26191984       0.26200914       0.26208571
       0.26217028       0.26222398       0.26224516       0.26289620
       0.26294713       0.26329372       0.26351330       0.26359270
       0.26400667       0.26420578       0.26421820       0.26441175
       0.26445038       0.26451872       0.26482582       0.26500344
       0.26510980       0.26554577       0.26571579       0.26603313
       0.26692449       0.26701849       0.26709912       0.26748564
       0.26751313       0.26779690       0.26843376       0.27008634
       0.27381519       0.27382947       0.27420086       0.27445255
       0.27446029       0.27452382       0.27454479       0.27489283
       0.27873690       0.27903673       0.27914195       0.27921880
       0.27954923       0.27968397       0.27971846       0.28056897
       0.28084622       0.28089794       0.28101710       0.28131889
       0.28133395       0.28146470       0.28153775       0.28154402
       0.28169855       0.28196460       0.28211358       0.28232572
       0.28249721       0.28255004       0.28257160       0.28280188
       0.28342933       0.28349127       0.28357184       0.28370620
       0.28392684       0.28395121       0.28408476       0.28426959
       0.28447916       0.28460253       0.28477612       0.28521725
       0.28523894       0.28533338       0.28536209       0.28543187
       0.28551937       0.28574098       0.28606808       0.28613378
       0.28629807       0.28635048       0.28650242       0.28664028
       0.28685761       0.28718584       0.28844625       0.28904111
       0.28943502       0.28978687       0.29134071       0.29165919
       0.29227218       0.29367377       0.29398986       0.29415576
       0.29430742       0.29477112       0.29485322       0.29507269
       0.29529968       0.29534473       0.29571630       0.29612898
       0.29717390       0.29734783       0.30008083       0.30015860
       0.30037974       0.30045141       0.30050899       0.30052400
       0.30062474       0.30087852       0.30093320       0.30116573
       0.30117247       0.30150956       0.30184770       0.30207171
       0.30258950       0.30301933       0.30453004       0.30463270
       0.30494491       0.30517685       0.30534088       0.30538155
       0.30556931       0.30636902       0.30944271       0.30976593
       0.30995419       0.31043779       0.31200744       0.31223828
       0.31227169       0.31233590       0.31266691       0.31321660
       0.31341035       0.31389617       0.31438464       0.31609046
       0.31636229       0.31680466       0.31689637       0.32046665
       0.32054810       0.32059946       0.32072746       0.32088209
       0.32110040       0.32129424       0.32184184       0.32572364
       0.32593050       0.32628924       0.32661767       0.32766589
       0.32770813       0.33159809       0.33208923       0.34078693
 Fermi Energy [eV] :    9.273284
  
  Lowest eigenvalues of the unoccupied subspace spin            1
 ---------------------------------------------

  
  Lowest eigenvalues of the unoccupied subspace spin            2
 ---------------------------------------------


 ENERGY| Total FORCE_EVAL ( QS ) energy (a.u.):            -8111.772146037468701


 -------------------------------------------------------------------------------
 -                                                                             -
 -                                DBCSR STATISTICS                             -
 -                                                                             -
 -------------------------------------------------------------------------------
 COUNTER                                    TOTAL       BLAS       SMM       ACC
 flops     4 x    25 x     4             25920000     100.0%      0.0%      0.0%
 flops    10 x    25 x     4             32400000     100.0%      0.0%      0.0%
 flops     4 x    25 x    10             32400000     100.0%      0.0%      0.0%
 flops    10 x    25 x    10             40500000     100.0%      0.0%      0.0%
 flops     4 x    24 x     4             49766400     100.0%      0.0%      0.0%
 flops    10 x    24 x     4             62208000     100.0%      0.0%      0.0%
 flops     4 x    24 x    10             62208000     100.0%      0.0%      0.0%
 flops    10 x    24 x    10             77760000     100.0%      0.0%      0.0%
 flops     4 x     4 x    56            379491840     100.0%      0.0%      0.0%
 flops     4 x     4 x    57            386268480     100.0%      0.0%      0.0%
 flops    10 x     4 x    56            471744000     100.0%      0.0%      0.0%
 flops     4 x    10 x    56            471744000     100.0%      0.0%      0.0%
 flops    10 x     4 x    57            480168000     100.0%      0.0%      0.0%
 flops     4 x    10 x    57            480168000     100.0%      0.0%      0.0%
 flops    10 x    10 x    56            596232000     100.0%      0.0%      0.0%
 flops    10 x    10 x    57            606879000     100.0%      0.0%      0.0%
 flops     4 x     4 x    32           2602229760     100.0%      0.0%      0.0%
 flops    10 x     4 x    32           3234816000     100.0%      0.0%      0.0%
 flops     4 x    10 x    32           3234816000     100.0%      0.0%      0.0%
 flops     4 x    32 x     4           3284582400     100.0%      0.0%      0.0%
 flops    10 x    10 x    32           4088448000     100.0%      0.0%      0.0%
 flops    10 x    32 x     4           4105728000     100.0%      0.0%      0.0%
 flops     4 x    32 x    10           4105728000     100.0%      0.0%      0.0%
 flops    10 x    32 x    10           5132160000     100.0%      0.0%      0.0%
 flops     4 x     4 x    64          11276328960     100.0%      0.0%      0.0%
 flops    10 x     4 x    64          14017536000     100.0%      0.0%      0.0%
 flops     4 x    10 x    64          14017536000     100.0%      0.0%      0.0%
 flops    10 x    10 x    64          17716608000     100.0%      0.0%      0.0%
 flops inhomo. stacks                           0       0.0%      0.0%      0.0%
 flops total                        91.072375E+09     100.0%      0.0%      0.0%
 flops max/rank                      2.448057E+09     100.0%      0.0%      0.0%
 matmuls inhomo. stacks                         0       0.0%      0.0%      0.0%
 matmuls total                           26460000     100.0%      0.0%      0.0%
 number of processed stacks                 96160     100.0%      0.0%      0.0%
 average stack size                                   275.2       0.0       0.0
 marketing flops                   164.465885E+09
 -------------------------------------------------------------------------------
 # multiplications                             29
 max memory usage/rank             421.220352E+06
 # max total images/rank                        5
 # max 3D layers                                1
 # MPI messages exchanged                   73080
 MPI messages size (bytes):
  total size                         7.498436E+09
  min size                          40.960000E+03
  max size                         280.704000E+03
  average size                     102.605852E+03
 MPI breakdown and total messages size (bytes):
             size <=      128                   0                        0
       128 < size <=     8192                   0                        0
      8192 < size <=    32768                   0                        0
     32768 < size <=   131072               57816               4237064640
    131072 < size <=  4194304               15264               3261371040
   4194304 < size <= 16777216                   0                        0
  16777216 < size                               0                        0
 -------------------------------------------------------------------------------

 *** WARNING in dbcsr/mm/dbcsr_mm.F:268 :: Using a non-square number of ***
 *** MPI ranks might lead to poor performance.                          ***
 *** Used ranks: 40                                                     ***
 *** Suggested: 36 81                                                   ***

 -------------------------------------------------------------------------------

 MEMORY| Estimated peak process memory [MiB]                                 407

 -------------------------------------------------------------------------------
 ----                             MULTIGRID INFO                            ----
 -------------------------------------------------------------------------------
 count for grid        1:         884850          cutoff [a.u.]          325.00
 count for grid        2:         501746          cutoff [a.u.]          108.33
 count for grid        3:         797626          cutoff [a.u.]           36.11
 count for grid        4:        1053899          cutoff [a.u.]           12.04
 count for grid        5:         551046          cutoff [a.u.]            4.01
 count for grid        6:              0          cutoff [a.u.]            1.34
 count for grid        7:              0          cutoff [a.u.]            0.45
 count for grid        8:              0          cutoff [a.u.]            0.15
 count for grid        9:              0          cutoff [a.u.]            0.05
 count for grid       10:              0          cutoff [a.u.]            0.02
 total gridlevel count  :        3789167

 -------------------------------------------------------------------------------
 -                                                                             -
 -                         MESSAGE PASSING PERFORMANCE                         -
 -                                                                             -
 -------------------------------------------------------------------------------

 ROUTINE             CALLS      AVE VOLUME [Bytes]
 MP_Group               39
 MP_Bcast             2309                 167764.
 MP_Allreduce          691                   1377.
 MP_Sync               434
 MP_Alltoall          1509                4813128.
 MP_ISendRecv        15600                  15276.
 MP_Wait             23972
 MP_comm_split          24
 MP_ISend             9522                 129091.
 MP_IRecv             9488                 128738.
 MP_Recv                66                 414720.
 MP_Memory            4498
 -------------------------------------------------------------------------------


 -------------------------------------------------------------------------------
 -                                                                             -
 -                           R E F E R E N C E S                               -
 -                                                                             -
 -------------------------------------------------------------------------------
 
 CP2K version 6.1, the CP2K developers group (2018).
 CP2K is freely available from https://www.cp2k.org/ .

 Schuett, Ole; Messmer, Peter; Hutter, Juerg; VandeVondele, Joost. 
 Electronic Structure Calculations on Graphics Processing Units, John Wiley & Sons, Ltd, 173-190 (2016). 
 GPU-Accelerated Sparse Matrix-Matrix Multiplication for Linear Scaling Density Functional Theory.
 http://dx.doi.org/10.1002/9781118670712.ch8


 Borstnik, U; VandeVondele, J; Weber, V; Hutter, J. 
 PARALLEL COMPUTING, 40 (5-6), 47-58 (2014). 
 Sparse matrix multiplication: The distributed block-compressed sparse
 row library.
 http://dx.doi.org/10.1016/j.parco.2014.03.012


 Hutter, J; Iannuzzi, M; Schiffmann, F; VandeVondele, J. 
 WILEY INTERDISCIPLINARY REVIEWS-COMPUTATIONAL MOLECULAR SCIENCE, 4 (1), 15-25 (2014). 
 CP2K: atomistic simulations of condensed matter systems.
 http://dx.doi.org/10.1002/wcms.1159


 VandeVondele, J; Hutter, J. 
 JOURNAL OF CHEMICAL PHYSICS, 127 (11), 114105 (2007). 
 Gaussian basis sets for accurate calculations on molecular systems in
 gas and condensed phases.
 http://dx.doi.org/10.1063/1.2770708


 Krack, M. 
 THEORETICAL CHEMISTRY ACCOUNTS, 114 (1-3), 145-152 (2005). 
 Pseudopotentials for H to Kr optimized for gradient-corrected
 exchange-correlation functionals.
 http://dx.doi.org/10.1007/s00214-005-0655-y


 VandeVondele, J; Krack, M; Mohamed, F; Parrinello, M; Chassaing, T;
 Hutter, J. COMPUTER PHYSICS COMMUNICATIONS, 167 (2), 103-128 (2005). 
 QUICKSTEP: Fast and accurate density functional calculations using a
 mixed Gaussian and plane waves approach.
 http://dx.doi.org/10.1016/j.cpc.2004.12.014


 Frigo, M; Johnson, SG. 
 PROCEEDINGS OF THE IEEE, 93 (2), 216-231 (2005). 
 The design and implementation of FFTW3.
 http://dx.doi.org/10.1109/JPROC.2004.840301


 Hartwigsen, C; Goedecker, S; Hutter, J. 
 PHYSICAL REVIEW B, 58 (7), 3641-3662 (1998). 
 Relativistic separable dual-space Gaussian pseudopotentials from H to Rn.
 http://dx.doi.org/10.1103/PhysRevB.58.3641


 Dudarev, SL; Botton, GA; Savrasov, SY; Humphreys, CJ; Sutton, AP. 
 PHYSICAL REVIEW B, 57 (3), 1505-1509 (1998). 
 Electron-energy-loss spectra and the structural stability of
 nickel oxide: An LSDA+U study.
 http://dx.doi.org/10.1103/PhysRevB.57.1505


 Lippert, G; Hutter, J; Parrinello, M. 
 MOLECULAR PHYSICS, 92 (3), 477-487 (1997). 
 A hybrid Gaussian and plane wave density functional scheme.
 http://dx.doi.org/10.1080/002689797170220


 Dudarev, SL; Manh, DN; Sutton, AP. 
 PHILOSOPHICAL MAGAZINE B, 75 (5), 613-628 (1997). 
 Effect of Mott-Hubbard correlations on the electronic
 structure and structural stability of uranium dioxide.
 http://dx.doi.org/10.1080/13642819708202343


 Perdew, JP; Burke, K; Ernzerhof, M. 
 PHYSICAL REVIEW LETTERS, 77 (18), 3865-3868 (1996). 
 Generalized gradient approximation made simple.
 http://dx.doi.org/10.1103/PhysRevLett.77.3865


 Goedecker, S; Teter, M; Hutter, J. 
 PHYSICAL REVIEW B, 54 (3), 1703-1710 (1996). 
 Separable dual-space Gaussian pseudopotentials.
 http://dx.doi.org/10.1103/PhysRevB.54.1703


 -------------------------------------------------------------------------------
 -                                                                             -
 -                                T I M I N G                                  -
 -                                                                             -
 -------------------------------------------------------------------------------
 SUBROUTINE                       CALLS  ASD         SELF TIME        TOTAL TIME
                                MAXIMUM       AVERAGE  MAXIMUM  AVERAGE  MAXIMUM
 CP2K                                 1  1.0    0.027    0.029  130.131  130.131
 qs_energies                          1  2.0    0.000    0.000  129.863  129.865
 scf_env_do_scf                       1  3.0    0.000    0.000  116.927  117.169
 scf_env_do_scf_inner_loop           12  4.0    0.001    0.001  116.926  117.169
 qs_ks_update_qs_env                 12  5.0    0.001    0.001   59.200   59.253
 rebuild_ks_matrix                   12  6.0    0.000    0.000   59.193   59.245
 qs_ks_build_kohn_sham_matrix        12  7.0    0.132    0.184   59.193   59.245
 qs_rho_update_rho                   13  5.0    0.000    0.000   49.718   49.718
 calculate_rho_elec                  26  6.0   43.845   44.770   49.717   49.718
 sum_up_and_integrate                12  8.0    0.026    0.029   45.859   45.860
 integrate_v_rspace                  24  9.0   41.215   42.052   45.833   45.835
 pw_transfer                        753  9.5    0.033    0.055   14.968   15.120
 fft_wrap_pw1pw2                    729 10.5    0.005    0.006   14.880   15.033
 fft_wrap_pw1pw2_330                279 11.6    0.764    0.835   14.309   14.444
 fft3d_ps                           729 12.5    6.736    7.411   12.305   12.436
 qs_vxc_create                       12  8.0    0.000    0.000   12.241   12.279
 xc_vxc_pw_create                    12  9.0    0.166    0.192   12.241   12.278
 qs_scf_new_mos                      12  5.0    0.000    0.001    9.359    9.426
 eigensolver                         24  6.0    0.001    0.002    8.757    8.762
 qs_energies_init_hamiltonians        1  3.0    0.000    0.000    7.963    7.963
 build_core_hamiltonian_matrix        1  4.0    0.000    0.000    7.035    7.535
 cp_fm_syevd                         24  7.0    0.000    0.000    6.945    6.951
 xc_rho_set_and_dset_create          12 10.0    0.078    0.126    6.682    6.938
 cp_fm_redistribute_end              24  8.0    2.097    6.890    2.108    6.900
 cp_fm_syevd_base                    24  8.0    4.765    6.816    4.765    6.816
 density_rs2pw                       26  7.0    0.002    0.002    5.404    6.549
 rs_pw_transfer                     504  9.4    0.004    0.005    4.655    6.416
 mp_alltoall_z22v                   729 14.5    4.603    5.331    4.603    5.331
 build_core_ppnl                      1  5.0    4.308    4.615    4.308    4.615
 init_scf_run                         1  3.0    0.000    0.000    4.414    4.415
 scf_env_initial_rho_setup            1  4.0    0.000    0.000    4.388    4.389
 mp_waitany                        4776 11.3    2.511    4.228    2.511    4.228
 rs_pw_transfer_RS2PW_330            28  8.9    0.407    0.489    2.405    4.151
 x_to_yz                            228 13.9    0.631    0.703    2.966    3.297
 potential_pw2rs                     24 10.0    0.004    0.004    3.029    3.032
 yz_to_x                            201 13.1    0.294    0.314    2.560    2.949
 build_core_ppl                       1  5.0    2.549    2.792    2.549    2.792
 xc_functional_eval                  12 11.0    0.000    0.000    2.398    2.663
 pbe_lsd_eval                        12 12.0    2.398    2.662    2.398    2.662
 -------------------------------------------------------------------------------

 The number of warnings for this run is : 1
 
 -------------------------------------------------------------------------------
  **** **** ******  **  PROGRAM ENDED AT                 2019-08-02 13:28:03.318
 ***** ** ***  *** **   PROGRAM RAN ON            cpn-p28-39.cbls.ccr.buffalo.ed
 **    ****   ******    PROGRAM RAN BY                                  pavankum
 ***** **    ** ** **   PROGRAM PROCESS ID                                 45623
  **** **  *******  **  PROGRAM STOPPED IN /projects/academic/mdupuis2/pavan/VAB
                                           _calculation/results_for_paper/7.TiO2
                                           _pbe_plus_U10/point_0.4
