      77
 i =        1, E =     -1322.2123648423
 Fe        18.3385144682       -0.0000016933        0.0000027590
 Fe        15.2893397741       -0.0000004093        0.0000018026
 Fe        12.2391180234        0.0000016149        0.0000070642
 Fe         9.1954232638       -0.0000045119        0.0000085094
 Fe         6.1239444914        0.0000021834        0.0000060469
 Fe         3.0500979863       -0.0000010345        0.0000036011
 Fe         0.0044611447        0.0000000360        0.0000016354
  O        18.3475718007       -0.0000026848        2.1288988376
  O        18.3475767887       -0.0000016098       -2.1288947861
  O        19.8630962442       -1.2651730684       -0.0000011061
  O        19.8630942000        1.2651733591        0.0000060076
  O        15.2650194112        0.0000025945        2.1289616735
  O        15.2650212750       -0.0000053853       -2.1289608132
  O        16.8132470364       -1.2666588143        0.0000022199
  O        16.8132486344        1.2666618789       -0.0000142072
  O        12.1959836833       -0.0000168709        2.1317362813
  O        12.1959858561        0.0000194067       -2.1317264843
  O        13.7641225714       -1.2652636956        0.0000009154
  O        13.7641245864        1.2652652258        0.0000040630
  O         9.1421615952       -0.0000057006        2.1350665635
  O         9.1421460286        0.0000045350       -2.1350466828
  O        10.7237574383       -1.2599227595       -0.0000114585
  O        10.7237542441        1.2599208442        0.0000250125
  O         6.1256580101       -0.0000012115        2.2269107615
  O         6.1256673684        0.0000020367       -2.2268981938
  O         7.6804715628       -1.2374537793       -0.0000093851
  O         7.6804711273        1.2374497509       -0.0000145697
  O         3.0959994837        0.0000017655        2.1390656098
  O         3.0959947812       -0.0000017525       -2.1390598833
  O         4.5662101700       -1.2362961578       -0.0000028758
  O         4.5662124865        1.2362987009        0.0000147364
  O         0.0339724215        0.0000045325        2.1321350413
  O         0.0340015648       -0.0000029638       -2.1321303200
  O         1.5204981394       -1.2593545565        0.0000041614
  O         1.5205000695        1.2593536748       -0.0000099753
  H        18.3838318475       -0.7924010651       -2.6788829903
  H        18.3837962577        0.7924010252       -2.6788799395
  H        18.3837997835       -0.7924012469        2.6788873868
  H        18.3838258993        0.7924084413        2.6788686000
  H        19.8641974346       -2.2261721170        0.0000050830
  H        19.8641979018        2.2261717765       -0.0000051269
  H        15.2011545581       -0.7922719868       -2.6767314869
  H        15.2011902606        0.7922607734       -2.6767372347
  H        15.2011908726       -0.7922597746        2.6767431830
  H        15.2011559498        0.7922726489        2.6767306325
  H        16.8130200579       -2.2277127904        0.0000127673
  H        16.8130189783        2.2277148225        0.0000086461
  H        12.0550314033       -0.7924492187       -2.6666122958
  H        12.0551233634        0.7925139049       -2.6665980632
  H        12.0551304235       -0.7925162075        2.6666039034
  H        12.0550368487        0.7924544966        2.6666198680
  H        13.7624224840       -2.2262793240       -0.0000053413
  H        13.7624247265        2.2262813447        0.0000052068
  H         9.0133609350       -0.7944707575       -2.6787282977
  H         9.0133904109        0.7944920248       -2.6787210271
  H         9.0133815232       -0.7944931407        2.6787278458
  H         9.0133623567        0.7944718145        2.6787351650
  H        10.7136656475       -2.2199718960       -0.0000152162
  H        10.7136705879        2.2199710576        0.0000138702
  H         6.1102524407       -0.7728604277       -2.8131618263
  H         6.1102522923        0.7728623016       -2.8131655388
  H         6.1102558222       -0.7728675790        2.8131674535
  H         6.1102566746        0.7728649385        2.8131676013
  H         7.7461673628       -2.2062218394        0.0000079308
  H         7.7461631776        2.2062175349        0.0000265626
  H         3.1929210626       -0.7943128509       -2.6888858599
  H         3.1929300481        0.7943010850       -2.6888922906
  H         3.1929257457       -0.7943059326        2.6888943170
  H         3.1929235727        0.7943176309        2.6888823344
  H         4.5004858645       -2.2050771390        0.0000101857
  H         4.5004786186        2.2050798197       -0.0000067319
  H         0.1481660251       -0.7927628786       -2.6726375845
  H         0.1481536009        0.7927533482       -2.6726447405
  H         0.1481660734       -0.7927526732        2.6726386183
  H         0.1481740096        0.7927549305        2.6726459675
  H         1.5299720587       -2.2193996217        0.0000056376
  H         1.5299830124        2.2193982329        0.0000063357
      77
 i =        2, E =     -1322.2174704132
 Fe        18.3363965448       -0.0000014341       -0.0000029586
 Fe        15.2910197651       -0.0000003879       -0.0000011904
 Fe        12.2449426978        0.0000000069        0.0000043176
 Fe         9.1987215776       -0.0000016329       -0.0000038177
 Fe         6.1229565562        0.0000016651       -0.0000073441
 Fe         3.0465528913       -0.0000028341       -0.0000029056
 Fe        -0.0017885484        0.0000017808       -0.0000005100
  O        18.3557789703       -0.0000014560        2.1334241044
  O        18.3557891736       -0.0000014828       -2.1334290819
  O        19.8644920006       -1.2653065753       -0.0000002273
  O        19.8644895795        1.2653068514        0.0000044293
  O        15.2555167203        0.0000034484        2.1330748975
  O        15.2555170779       -0.0000050418       -2.1330749791
  O        16.8131012387       -1.2654853842        0.0000068069
  O        16.8131020653        1.2654866295       -0.0000064659
  O        12.1703720691       -0.0000191478        2.1318874018
  O        12.1703692590        0.0000218015       -2.1318818543
  O        13.7623901993       -1.2655742743        0.0000035714
  O        13.7623908705        1.2655757337        0.0000043495
  O         9.1290812782       -0.0000071575        2.1426758564
  O         9.1290855540        0.0000051702       -2.1426745800
  O        10.7145143340       -1.2629396511       -0.0000079043
  O        10.7145150314        1.2629379464        0.0000229399
  O         6.1231177290       -0.0000013850        2.2443686990
  O         6.1231141806        0.0000021753       -2.2443686164
  O         7.6596936700       -1.2390951404        0.0000049197
  O         7.6596906276        1.2390918604        0.0000067720
  O         3.1080976780        0.0000021174        2.1468096994
  O         3.1081020062       -0.0000024095       -2.1468115497
  O         4.5859238926       -1.2384031550        0.0000036040
  O         4.5859219538        1.2384055564        0.0000108483
  O         0.0592483386        0.0000037331        2.1333166018
  O         0.0592612848       -0.0000032932       -2.1333125434
  O         1.5293708437       -1.2620529869        0.0000083765
  O         1.5293756555        1.2620521301        0.0000003352
  H        18.3791356237       -0.7958898481       -2.6810621190
  H        18.3791005543        0.7958897935       -2.6810589442
  H        18.3791055408       -0.7958805486        2.6810701669
  H        18.3791321424        0.7958887831        2.6810528331
  H        19.8613393551       -2.2269134994        0.0000045452
  H        19.8613388734        2.2269134537       -0.0000052813
  H        15.2070540016       -0.7958913914       -2.6792395799
  H        15.2070918418        0.7958798091       -2.6792455647
  H        15.2070918489       -0.7958781341        2.6792504758
  H        15.2070552430        0.7958915877        2.6792384849
  H        16.8129926290       -2.2269262637        0.0000118941
  H        16.8129926002        2.2269271940        0.0000070105
  H        12.0706679665       -0.7980088108       -2.6728935820
  H        12.0707602187        0.7980726104       -2.6728804780
  H        12.0707656208       -0.7980679306        2.6728893527
  H        12.0706715463        0.7980073417        2.6729046941
  H        13.7652555341       -2.2271926424       -0.0000061421
  H        13.7652586057        2.2271945219        0.0000049653
  H         9.0264746701       -0.8007253059       -2.6821836088
  H         9.0265047103        0.8007463677       -2.6821754278
  H         9.0265017393       -0.8007418071        2.6821915933
  H         9.0264830881        0.8007203152        2.6821976969
  H        10.7235451547       -2.2252684692       -0.0000166577
  H        10.7235461012        2.2252667800        0.0000140741
  H         6.1111788948       -0.8087274751       -2.7811491121
  H         6.1111809647        0.8087291197       -2.7811529390
  H         6.1111802754       -0.8087225567        2.7811613177
  H         6.1111795367        0.8087198539        2.7811612946
  H         7.7123727780       -2.2023089477        0.0000040026
  H         7.7123715128        2.2023055079        0.0000201330
  H         3.1809727416       -0.8005225041       -2.6908575713
  H         3.1809803602        0.8005111931       -2.6908645447
  H         3.1809788370       -0.8005054237        2.6908704542
  H         3.1809778563        0.8005174438        2.6908587739
  H         4.5340819929       -2.2015167592        0.0000076227
  H         4.5340771780        2.2015187934       -0.0000049550
  H         0.1333886423       -0.7980558350       -2.6779905745
  H         0.1333769670        0.7980459170       -2.6779967348
  H         0.1333842801       -0.7980517014        2.6779900797
  H         0.1333918804        0.7980535175        2.6779969516
  H         1.5201521095       -2.2243751835        0.0000050528
  H         1.5201610035        2.2243743166        0.0000044534
      77
 i =        3, E =     -1322.2203492033
 Fe        18.3359026382       -0.0000011731       -0.0000000331
 Fe        15.2907458005       -0.0000005717        0.0000004754
 Fe        12.2450339017        0.0000002670        0.0000078604
 Fe         9.1939668329       -0.0000010940        0.0000042843
 Fe         6.1221710477        0.0000008534        0.0000015830
 Fe         3.0506828165       -0.0000022866        0.0000027046
 Fe        -0.0023916605        0.0000019981        0.0000005380
  O        18.3619194461        0.0000005893        2.1362401028
  O        18.3619294850       -0.0000011802       -2.1362408301
  O        19.8664321788       -1.2633474076       -0.0000019681
  O        19.8664305585        1.2633476172       -0.0000004965
  O        15.2484180563        0.0000045621        2.1355894931
  O        15.2484177284       -0.0000047164       -2.1355871120
  O        16.8128594694       -1.2623051199        0.0000067428
  O        16.8128597024        1.2623043323       -0.0000039007
  O        12.1572060861       -0.0000212810        2.1329700459
  O        12.1572004529        0.0000233018       -2.1329592332
  O        13.7599501495       -1.2638637094        0.0000017594
  O        13.7599510692        1.2638648261        0.0000014553
  O         9.1283421407       -0.0000082803        2.1460413265
  O         9.1283470051        0.0000065932       -2.1460304215
  O        10.7069818843       -1.2661642404       -0.0000114194
  O        10.7069821486        1.2661627210        0.0000147541
  O         6.1218256630       -0.0000013554        2.2153820825
  O         6.1218198406        0.0000018221       -2.2153740781
  O         7.6535450111       -1.2555986110        0.0000015724
  O         7.6535443795        1.2555976083        0.0000106448
  O         3.1078275521        0.0000025101        2.1495127318
  O         3.1078363219       -0.0000038563       -2.1495071744
  O         4.5909934986       -1.2551412493        0.0000009670
  O         4.5909916442        1.2551417606       -0.0000015280
  O         0.0722446645        0.0000027059        2.1348028033
  O         0.0722466197       -0.0000034046       -2.1348005829
  O         1.5362405754       -1.2651040844        0.0000048984
  O         1.5362444900        1.2651036557        0.0000037025
  H        18.3744815559       -0.7961436888       -2.6850929338
  H        18.3744472091        0.7961434636       -2.6850904341
  H        18.3744524060       -0.7961392942        2.6850966748
  H        18.3744790608        0.7961484724        2.6850834856
  H        19.8602000999       -2.2254180944        0.0000045482
  H        19.8601979789        2.2254184456       -0.0000039716
  H        15.2131186867       -0.7962022336       -2.6836244437
  H        15.2131577412        0.7961902348       -2.6836305428
  H        15.2131578355       -0.7961904812        2.6836330716
  H        15.2131195844        0.7962044507        2.6836228036
  H        16.8129099746       -2.2241326397        0.0000111571
  H        16.8129110288        2.2241321619        0.0000054942
  H        12.0837190654       -0.7977379285       -2.6796503368
  H        12.0838102907        0.7978006513       -2.6796390146
  H        12.0838142180       -0.7977996147        2.6796465468
  H        12.0837217004        0.7977400594        2.6796592288
  H        13.7662641131       -2.2259234242       -0.0000059574
  H        13.7662665834        2.2259245870        0.0000062648
  H         9.0364903506       -0.7968671941       -2.6873358792
  H         9.0365190331        0.7968881875       -2.6873285946
  H         9.0365163162       -0.7968927354        2.6873383824
  H         9.0364984318        0.7968710780        2.6873434331
  H        10.7267523119       -2.2292953156       -0.0000157906
  H        10.7267513035        2.2292933766        0.0000169127
  H         6.1114875444       -0.7947787392       -2.7686383706
  H         6.1114914252        0.7947804158       -2.7686414276
  H         6.1114897158       -0.7947826715        2.7686453310
  H         6.1114876049        0.7947798720        2.7686454217
  H         7.6743506456       -2.2131726821        0.0000040903
  H         7.6743506492        2.2131715025        0.0000174015
  H         3.1722933739       -0.7967597654       -2.6944620856
  H         3.1722983317        0.7967487621       -2.6944677250
  H         3.1722988402       -0.7967489267        2.6944706131
  H         3.1722990683        0.7967608898        2.6944601057
  H         4.5714584709       -2.2126400633        0.0000074935
  H         4.5714545472        2.2126401661       -0.0000007725
  H         0.1213514121       -0.7977401150       -2.6838537059
  H         0.1213404283        0.7977302182       -2.6838592080
  H         0.1213444623       -0.7977367211        2.6838550831
  H         0.1213513363        0.7977384677        2.6838602120
  H         1.5169210972       -2.2282135103        0.0000062570
  H         1.5169286683        2.2282132264        0.0000035497
      77
 i =        4, E =     -1322.2215989635
 Fe        18.3381854409       -0.0000015721       -0.0000010793
 Fe        15.2874265240       -0.0000003113       -0.0000006597
 Fe        12.2383637721        0.0000007096        0.0000031718
 Fe         9.1864106075       -0.0000011851        0.0000030482
 Fe         6.1217926693        0.0000004991        0.0000008674
 Fe         3.0571396904       -0.0000015335       -0.0000002567
 Fe         0.0036462927        0.0000017510        0.0000001852
  O        18.3631690416        0.0000025329        2.1392364698
  O        18.3631728656       -0.0000008575       -2.1392385331
  O        19.8697662744       -1.2604888589        0.0000001893
  O        19.8697648540        1.2604891745       -0.0000006842
  O        15.2467848400        0.0000052357        2.1386057431
  O        15.2467859581       -0.0000046224       -2.1386058124
  O        16.8125025794       -1.2588723723        0.0000078448
  O        16.8125034407        1.2588703450       -0.0000024529
  O        12.1596946377       -0.0000216178        2.1382217107
  O        12.1596927897        0.0000230803       -2.1382156241
  O        13.7559077661       -1.2611586834        0.0000022413
  O        13.7559086412        1.2611591706        0.0000031046
  O         9.1240539130       -0.0000089433        2.1463408982
  O         9.1240516445        0.0000077036       -2.1463342663
  O        10.7011770972       -1.2662950016       -0.0000092291
  O        10.7011760657        1.2662939804        0.0000173069
  O         6.1208743472       -0.0000011690        2.1945038152
  O         6.1208750846        0.0000013156       -2.1944992890
  O         7.6441308919       -1.2608539884        0.0000012129
  O         7.6441324722        1.2608542870        0.0000136201
  O         3.1109465110        0.0000030479        2.1490859899
  O         3.1109474722       -0.0000048063       -2.1490862976
  O         4.5993426716       -1.2603828991        0.0000048216
  O         4.5993416407        1.2603816402       -0.0000013060
  O         0.0695429916        0.0000017340        2.1396046345
  O         0.0695442738       -0.0000031863       -2.1396042998
  O         1.5410984761       -1.2653880470        0.0000029271
  O         1.5411008226        1.2653879294        0.0000048979
  H        18.3707590626       -0.7948632454       -2.6898888926
  H        18.3707260883        0.7948627425       -2.6898874469
  H        18.3707298358       -0.7948575922        2.6898916710
  H        18.3707556979        0.7948677526        2.6898831700
  H        19.8617556613       -2.2225579839        0.0000035651
  H        19.8617525382        2.2225585818       -0.0000036148
  H        15.2184589686       -0.7949088255       -2.6886907039
  H        15.2184987486        0.7948964517       -2.6886968015
  H        15.2184996048       -0.7948939178        2.6886999036
  H        15.2184601773        0.7949084321        2.6886913226
  H        16.8127048389       -2.2209489076        0.0000096050
  H        16.8127060954        2.2209472209        0.0000036656
  H        12.0933582123       -0.7950094592       -2.6844151851
  H        12.0934490880        0.7950712997       -2.6844039633
  H        12.0934536212       -0.7950678644        2.6844145458
  H        12.0933619928        0.7950090205        2.6844260634
  H        13.7643506026       -2.2231982201       -0.0000061350
  H        13.7643523965        2.2231985185        0.0000062823
  H         9.0498034468       -0.7949446651       -2.6922788842
  H         9.0498324340        0.7949661534       -2.6922734384
  H         9.0498277575       -0.7949625517        2.6922846729
  H         9.0498089009        0.7949403400        2.6922885485
  H        10.7205445034       -2.2282653078       -0.0000159913
  H        10.7205427776        2.2282640845        0.0000174582
  H         6.1115838278       -0.7916487062       -2.7500735016
  H         6.1115889000        0.7916503510       -2.7500751691
  H         6.1115886183       -0.7916493838        2.7500813439
  H         6.1115858097        0.7916465551        2.7500819793
  H         7.6477970960       -2.2195582518        0.0000030116
  H         7.6477980648        2.2195585246        0.0000148927
  H         3.1606520774       -0.7946385430       -2.6976503500
  H         3.1606560063        0.7946272400       -2.6976537421
  H         3.1606542154       -0.7946256242        2.6976609489
  H         3.1606550766        0.7946375645        2.6976522639
  H         4.5969428718       -2.2191281619        0.0000061849
  H         4.5969394985        2.2191267907       -0.0000000787
  H         0.1129880000       -0.7950161163       -2.6879593111
  H         0.1129773565        0.7950066095       -2.6879648517
  H         0.1129812289       -0.7950093211        2.6879632002
  H         0.1129879539        0.7950108703        2.6879659504
  H         1.5227940778       -2.2273387406        0.0000064603
  H         1.5228003858        2.2273387492        0.0000025975
      77
 i =        5, E =     -1322.2226008765
 Fe        18.3419966009       -0.0000013172        0.0000024241
 Fe        15.2821139730       -0.0000004625        0.0000043562
 Fe        12.2280152243        0.0000004386        0.0000081610
 Fe         9.1720823322       -0.0000001763        0.0000134059
 Fe         6.1210817698       -0.0000001783        0.0000118648
 Fe         3.0696262306       -0.0000015251        0.0000076426
 Fe         0.0126637409        0.0000014894        0.0000044231
  O        18.3604406218        0.0000047328        2.1458572096
  O        18.3604372810       -0.0000008764       -2.1458544517
  O        19.8740106688       -1.2582149827       -0.0000003840
  O        19.8740097275        1.2582154469       -0.0000027011
  O        15.2493782850        0.0000058475        2.1454482108
  O        15.2493794775       -0.0000045444       -2.1454424835
  O        16.8118964746       -1.2564380316        0.0000063472
  O        16.8118969837        1.2564351915       -0.0000055373
  O        12.1618075151       -0.0000216666        2.1449003763
  O        12.1618043748        0.0000228276       -2.1448847106
  O        13.7503700127       -1.2588193330       -0.0000024663
  O        13.7503705876        1.2588189873        0.0000001770
  O         9.1215043706       -0.0000101016        2.1494312742
  O         9.1215004142        0.0000091127       -2.1494113566
  O        10.6931676754       -1.2620156242       -0.0000148725
  O        10.6931668072        1.2620155369        0.0000140289
  O         6.1196211186       -0.0000009280        2.1674540451
  O         6.1196257269        0.0000007556       -2.1674411147
  O         7.6343420456       -1.2657977793       -0.0000046108
  O         7.6343434081        1.2657985639        0.0000087529
  O         3.1120684670        0.0000039573        2.1508926354
  O         3.1120709487       -0.0000055297       -2.1508808195
  O         4.6073845640       -1.2653767087        0.0000012054
  O         4.6073828992        1.2653741944       -0.0000058552
  O         0.0665926580        0.0000005832        2.1460590041
  O         0.0665924637       -0.0000026485       -2.1460536999
  O         1.5475696851       -1.2614221434       -0.0000020169
  O         1.5475711712        1.2614221087        0.0000005563
  H        18.3660547864       -0.7948652798       -2.6958871717
  H        18.3660244699        0.7948640784       -2.6958866633
  H        18.3660269276       -0.7948631426        2.6958857917
  H        18.3660507998        0.7948745404        2.6958829711
  H        19.8672401935       -2.2198457599        0.0000030490
  H        19.8672361347        2.2198463003       -0.0000026340
  H        15.2258984879       -0.7948263845       -2.6950469418
  H        15.2259395841        0.7948136151       -2.6950533880
  H        15.2259407223       -0.7948162359        2.6950529983
  H        15.2258995293        0.7948314195        2.6950463682
  H        16.8122126350       -2.2183758332        0.0000080246
  H        16.8122144715        2.2183730090        0.0000020286
  H        12.1113917189       -0.7940159489       -2.6921073313
  H        12.1114818240        0.7940758061       -2.6920956512
  H        12.1114847901       -0.7940810800        2.6921009885
  H        12.1113944314        0.7940239970        2.6921121345
  H        13.7579921440       -2.2204353620       -0.0000050066
  H        13.7579931514        2.2204348963        0.0000078466
  H         9.0706004062       -0.7954070449       -2.6967574619
  H         9.0706307425        0.7954295035       -2.6967545281
  H         9.0706267227       -0.7954387848        2.6967578735
  H         9.0706056381        0.7954153959        2.6967598350
  H        10.7053682927       -2.2229555505       -0.0000141118
  H        10.7053652352        2.2229554653        0.0000201242
  H         6.1115670631       -0.7914589461       -2.7214038711
  H         6.1115734693        0.7914606576       -2.7214038083
  H         6.1115732779       -0.7914681448        2.7214057423
  H         6.1115700804        0.7914652806        2.7214070481
  H         7.6193638752       -2.2275219756        0.0000028217
  H         7.6193667520        2.2275229166        0.0000138081
  H         3.1425562221       -0.7952389322       -2.6994717029
  H         3.1425598717        0.7952271493       -2.6994724891
  H         3.1425596766       -0.7952347034        2.6994738340
  H         3.1425608837        0.7952465773        2.6994682194
  H         4.6234654016       -2.2271844405        0.0000063582
  H         4.6234632793        2.2271821073        0.0000015769
  H         0.0974654271       -0.7940538577       -2.6943643537
  H         0.0974547311        0.7940450690       -2.6943701389
  H         0.0974577048       -0.7940511029        2.6943679669
  H         0.0974649677        0.7940522791        2.6943674803
  H         1.5368819256       -2.2223985420        0.0000069950
  H         1.5368855921        2.2223987055        0.0000025557
      77
 i =        6, E =     -1322.2230308746
 Fe        18.3431803183       -0.0000010964       -0.0000042512
 Fe        15.2800089656       -0.0000004172       -0.0000040442
 Fe        12.2197882630        0.0000005138       -0.0000063308
 Fe         9.1643392274       -0.0000004419       -0.0000062866
 Fe         6.1204733088        0.0000000376       -0.0000077469
 Fe         3.0761500123       -0.0000010686       -0.0000083294
 Fe         0.0195758390        0.0000011020       -0.0000034049
  O        18.3578963693        0.0000055232        2.1483495717
  O        18.3578913895       -0.0000012047       -2.1483551234
  O        19.8762104192       -1.2573277953        0.0000043049
  O        19.8762095563        1.2573282043        0.0000026381
  O        15.2521176436        0.0000058422        2.1481077116
  O        15.2521191019       -0.0000046782       -2.1481130344
  O        16.8114318413       -1.2570908523        0.0000120989
  O        16.8114323427        1.2570884384       -0.0000015059
  O        12.1657329938       -0.0000213649        2.1483246265
  O        12.1657349577        0.0000223991       -2.1483295776
  O        13.7471679203       -1.2577186290        0.0000042092
  O        13.7471683966        1.2577179930        0.0000074141
  O         9.1213123439       -0.0000106302        2.1488013139
  O         9.1213156761        0.0000100480       -2.1488108275
  O        10.6880896577       -1.2594513318       -0.0000048435
  O        10.6880881645        1.2594517770        0.0000259787
  O         6.1188422424       -0.0000009076        2.1558084410
  O         6.1188475679        0.0000005556       -2.1558113578
  O         7.6333459880       -1.2666091856        0.0000074823
  O         7.6333476419        1.2666095397        0.0000190626
  O         3.1115442055        0.0000042356        2.1493096286
  O         3.1115376902       -0.0000057323       -2.1493209464
  O         4.6071679151       -1.2663078240        0.0000120304
  O         4.6071667895        1.2663051949        0.0000071887
  O         0.0625053928        0.0000001898        2.1489590567
  O         0.0625018669       -0.0000023601       -2.1489638162
  O         1.5514699033       -1.2589640333        0.0000054518
  O         1.5514705998        1.2589639044        0.0000061151
  H        18.3627127636       -0.7939482516       -2.6994934750
  H        18.3626847620        0.7939462692       -2.6994930697
  H        18.3626872467       -0.7939360837        2.6994959774
  H        18.3627092202        0.7939479645        2.6994951983
  H        19.8723252838       -2.2189482310        0.0000013788
  H        19.8723215684        2.2189485820       -0.0000037916
  H        15.2313161721       -0.7939469150       -2.6988773841
  H        15.2313583264        0.7939339128       -2.6988838961
  H        15.2313597302       -0.7939254720        2.6988893491
  H        15.2313172131        0.7939407850        2.6988831067
  H        16.8117377571       -2.2187771519        0.0000053392
  H        16.8117392716        2.2187745638       -0.0000008050
  H        12.1246294684       -0.7942433015       -2.6966635521
  H        12.1247189620        0.7943015905       -2.6966510537
  H        12.1247231779       -0.7942895355        2.6966663244
  H        12.1246339286        0.7942339065        2.6966779653
  H        13.7519411617       -2.2193418053       -0.0000068115
  H        13.7519417518        2.2193410812        0.0000065164
  H         9.0848298787       -0.7945695454       -2.6992892280
  H         9.0848610684        0.7945927332       -2.6992874961
  H         9.0848612890       -0.7945786980        2.6993065556
  H         9.0848385563        0.7945545298        2.6993083769
  H        10.6928118486       -2.2203068537       -0.0000163324
  H        10.6928093681        2.2203075422        0.0000185496
  H         6.1114839277       -0.7945128154       -2.7053644186
  H         6.1114909352        0.7945146755       -2.7053634907
  H         6.1114902068       -0.7945051055        2.7053760931
  H         6.1114870946        0.7945021783        2.7053776014
  H         7.6145509906       -2.2294495904       -0.0000012753
  H         7.6145535670        2.2294500728        0.0000099807
  H         3.1302046818       -0.7943550165       -2.7005562940
  H         3.1302082307        0.7943431065       -2.7005562644
  H         3.1302048073       -0.7943320185        2.7005702601
  H         3.1302059346        0.7943436090        2.7005659678
  H         4.6268180606       -2.2291769346        0.0000032705
  H         4.6268162906        2.2291744492       -0.0000016557
  H         0.0860987360       -0.7941288762       -2.6982818340