 DBCSR| Multiplication driver                                               BLAS
 DBCSR| Multrec recursion limit                                              512
 DBCSR| Multiplication stack size                                           1000
 DBCSR| Maximum elements for images                                    UNLIMITED
 DBCSR| Multiplicative factor virtual images                                   1
 DBCSR| Multiplication size stacks                                             3
 DBCSR| Number of 3D layers                                               SINGLE
 DBCSR| Use MPI memory allocation                                              T
 DBCSR| Use RMA algorithm                                                      F
 DBCSR| Use Communication thread                                               T
 DBCSR| Communication thread load                                             87


  **** **** ******  **  PROGRAM STARTED AT               2019-07-25 13:12:48.061
 ***** ** ***  *** **   PROGRAM STARTED ON        cpn-p28-41.cbls.ccr.buffalo.ed
 **    ****   ******    PROGRAM STARTED BY                              pavankum
 ***** **    ** ** **   PROGRAM PROCESS ID                                 90659
  **** **  *******  **  PROGRAM STARTED IN /projects/academic/mdupuis2/pavan/VAB
                                           _calculation/results_for_paper/2.Zn2+
                                           /gapw_all_elec/r_8

 CP2K| version string:                                          CP2K version 6.1
 CP2K| source code revision number:                                    svn:18464
 CP2K| cp2kflags: libint fftw3 libxc parallel mpi3 scalapack libderiv_max_am1=5 
 CP2K|            libint_max_am=6
 CP2K| is freely available from                            https://www.cp2k.org/
 CP2K| Program compiled at                          Fri Nov 30 14:17:09 EST 2018
 CP2K| Program compiled on                       srv-p22-12.cbls.ccr.buffalo.edu
 CP2K| Program compiled for                                                local
 CP2K| Data directory path    /projects/academic/mdupuis2/pavan/cp2k/cp2k-6.1/da
 CP2K| Input file name                                                 input.inp

 GLOBAL| Force Environment number                                              3
 GLOBAL| Basis set file name                                           BASIS_SET
 GLOBAL| Potential file name                                           POTENTIAL
 GLOBAL| MM Potential file name                                     MM_POTENTIAL
 GLOBAL| Coordinate file name                                     ./geometry.xyz
 GLOBAL| Force Environment number                                              1
 GLOBAL| Basis set file name            /projects/academic/mdupuis2/pavan/cp2k/c
 GLOBAL| Potential file name            /projects/academic/mdupuis2/pavan/cp2k/c
 GLOBAL| MM Potential file name                                     MM_POTENTIAL
 GLOBAL| Coordinate file name                                       ./state0.xyz
 GLOBAL| Force Environment number                                              2
 GLOBAL| Basis set file name            /projects/academic/mdupuis2/pavan/cp2k/c
 GLOBAL| Potential file name            /projects/academic/mdupuis2/pavan/cp2k/c
 GLOBAL| MM Potential file name                                     MM_POTENTIAL
 GLOBAL| Coordinate file name                                       ./state1.xyz
 GLOBAL| Method name                                                        CP2K
 GLOBAL| Project name                                                      p_zn_
 GLOBAL| Preferred FFT library                                             FFTW3
 GLOBAL| Preferred diagonalization lib.                                       SL
 GLOBAL| Run type                                                         ENERGY
 GLOBAL| All-to-all communication in single precision                          F
 GLOBAL| FFTs using library dependent lengths                                  T
 GLOBAL| Global print level                                               MEDIUM
 GLOBAL| Total number of message passing processes                            16
 GLOBAL| Number of threads for this process                                    1
 GLOBAL| This output is from process                                           0
 GLOBAL| CPU model name :  Intel(R) Xeon(R) CPU E5-2650 v3 @ 2.30GHz

 MEMORY| system memory details [Kb]
 MEMORY|                        rank 0           min           max       average
 MEMORY| MemTotal            131740876     131740876     131740876     131740876
 MEMORY| MemFree             127453832     127453832     127453832     127453832
 MEMORY| Buffers                347148        347148        347148        347148
 MEMORY| Cached                 624592        624592        624592        624592
 MEMORY| Slab                   315224        315224        315224        315224
 MEMORY| SReclaimable           158028        158028        158028        158028
 MEMORY| MemLikelyFree       128583600     128583600     128583600     128583600


 *** Fundamental physical constants (SI units) ***

 *** Literature: B. J. Mohr and B. N. Taylor,
 ***             CODATA recommended values of the fundamental physical
 ***             constants: 2006, Web Version 5.1
 ***             http://physics.nist.gov/constants

 Speed of light in vacuum [m/s]                             2.99792458000000E+08
 Magnetic constant or permeability of vacuum [N/A**2]       1.25663706143592E-06
 Electric constant or permittivity of vacuum [F/m]          8.85418781762039E-12
 Planck constant (h) [J*s]                                  6.62606896000000E-34
 Planck constant (h-bar) [J*s]                              1.05457162825177E-34
 Elementary charge [C]                                      1.60217648700000E-19
 Electron mass [kg]                                         9.10938215000000E-31
 Electron g factor [ ]                                     -2.00231930436220E+00
 Proton mass [kg]                                           1.67262163700000E-27
 Fine-structure constant                                    7.29735253760000E-03
 Rydberg constant [1/m]                                     1.09737315685270E+07
 Avogadro constant [1/mol]                                  6.02214179000000E+23
 Boltzmann constant [J/K]                                   1.38065040000000E-23
 Atomic mass unit [kg]                                      1.66053878200000E-27
 Bohr radius [m]                                            5.29177208590000E-11

 *** Conversion factors ***

 [u] -> [a.u.]                                              1.82288848426455E+03
 [Angstrom] -> [Bohr] = [a.u.]                              1.88972613288564E+00
 [a.u.] = [Bohr] -> [Angstrom]                              5.29177208590000E-01
 [a.u.] -> [s]                                              2.41888432650478E-17
 [a.u.] -> [fs]                                             2.41888432650478E-02
 [a.u.] -> [J]                                              4.35974393937059E-18
 [a.u.] -> [N]                                              8.23872205491840E-08
 [a.u.] -> [K]                                              3.15774647902944E+05
 [a.u.] -> [kJ/mol]                                         2.62549961709828E+03
 [a.u.] -> [kcal/mol]                                       6.27509468713739E+02
 [a.u.] -> [Pa]                                             2.94210107994716E+13
 [a.u.] -> [bar]                                            2.94210107994716E+08
 [a.u.] -> [atm]                                            2.90362800883016E+08
 [a.u.] -> [eV]                                             2.72113838565563E+01
 [a.u.] -> [Hz]                                             6.57968392072181E+15
 [a.u.] -> [1/cm] (wave numbers)                            2.19474631370540E+05
 [a.u./Bohr**2] -> [1/cm]                                   5.14048714338585E+03
 
 MIXED_ENV| Number of created MPI groups:                                      1
 MIXED_ENV| Task to group correspondence:
  (   0 :    0)  (   1 :    0)  (   2 :    0)  (   3 :    0)
  (   4 :    0)  (   5 :    0)  (   6 :    0)  (   7 :    0)
  (   8 :    0)  (   9 :    0)  (  10 :    0)  (  11 :    0)
  (  12 :    0)  (  13 :    0)  (  14 :    0)  (  15 :    0)
          ----------------------------------------------------------------------
 COLVARS| COLVAR INPUT INDEX:        1
 COLVARS| ENERGY          >>> ATOMS:                                        all!
          ----------------------------------------------------------------------

 CELL_TOP| Volume [angstrom^3]:                                         8000.000
 CELL_TOP| Vector a [angstrom    20.000     0.000     0.000    |a| =      20.000
 CELL_TOP| Vector b [angstrom     0.000    20.000     0.000    |b| =      20.000
 CELL_TOP| Vector c [angstrom     0.000     0.000    20.000    |c| =      20.000
 CELL_TOP| Angle (b,c), alpha [degree]:                                   90.000
 CELL_TOP| Angle (a,c), beta  [degree]:                                   90.000
 CELL_TOP| Angle (a,b), gamma [degree]:                                   90.000
 CELL_TOP| Numerically orthorhombic:                                         YES

 GENERATE|  Preliminary Number of Bonds generated:                             0
 GENERATE|  Achieved consistency in connectivity generation.

 CELL| Volume [angstrom^3]:                                             8000.000
 CELL| Vector a [angstrom]:      20.000     0.000     0.000    |a| =      20.000
 CELL| Vector b [angstrom]:       0.000    20.000     0.000    |b| =      20.000
 CELL| Vector c [angstrom]:       0.000     0.000    20.000    |c| =      20.000
 CELL| Angle (b,c), alpha [degree]:                                       90.000
 CELL| Angle (a,c), beta  [degree]:                                       90.000
 CELL| Angle (a,b), gamma [degree]:                                       90.000
 CELL| Numerically orthorhombic:                                             YES

 CELL_REF| Volume [angstrom^3]:                                         8000.000
 CELL_REF| Vector a [angstrom    20.000     0.000     0.000    |a| =      20.000
 CELL_REF| Vector b [angstrom     0.000    20.000     0.000    |b| =      20.000
 CELL_REF| Vector c [angstrom     0.000     0.000    20.000    |c| =      20.000
 CELL_REF| Angle (b,c), alpha [degree]:                                   90.000
 CELL_REF| Angle (a,c), beta  [degree]:                                   90.000
 CELL_REF| Angle (a,b), gamma [degree]:                                   90.000
 CELL_REF| Numerically orthorhombic:                                         YES


 MOLECULE KIND INFORMATION


 All atoms are their own molecule, skipping detailed information

 *** WARNING in force_env_methods.F:1097 :: ASSERTION (cond) failed at   ***
 *** line   1098 Error (0.185707E-11) in computing numerical derivatives ***
 *** larger then(0.100000E-11) .                                         ***


 *** WARNING in force_env_methods.F:1097 :: ASSERTION (cond) failed at   ***
 *** line   1098 Error (0.185707E-11) in computing numerical derivatives ***
 *** larger then(0.100000E-11) .                                         ***

 nspins, nimgs, gapw_xc           2           1 F 

 ####### CHECKS ON A and B #######
  E_A before:  -3554.5435132514581     
  E_B before:  -3554.5435132519151     
 ####### - #######
##Inside build_kohn_sham_matrix() before doing any function calls
 i). ELECTRON ONLY CALLS
 1. Electron_pw   1209.4678941343343     
 2. Electron_1c   391.68533864799082     
 ########## After 1st poisson call pure hartree  (sum of above two quantities) ##########   1601.1532327823252     
 ########################
ii). NUCLEAR ONLY CALLS
 1. Nuclear_pw   1890.3254484119302     
 2. Nuclear_1c  -337.35001003422531     
iii). REGULAR CALL (ELECTRON+NUCLEAR)
 1. Hartree_pw   135.81290828399398     
 2. Hartree_1c   75.114932620056521     
 Regular: Before call to qs_vxc Regular_exc, exc1   0.0000000000000000        0.0000000000000000     
 Regular: After call to qs_vxc_create Regular_exc, exc1   0.0000000000000000        0.0000000000000000     
 iv). EXCHANGE ENERGY   -139.04310004413531     
 v). POTENTIAL ENERGY FROM CORE HAMILTONIAN   -5687.3342060813056     
 vi). KINETIC ENERGY    3554.3489672434007     
 vii). SELF ENERGY   -1493.4430152734726     
      
 E_NUC is    59.532423104232294     
      
IN build_kohn_sham_matrix() CALLING qs_ks_atom(),updates single atom contributions due to gapw
Inside build_kohn_sham_matrix() after doing all function calls and evaluating energy
 CHECK ON A IS DONE, E_A after passing modified PA_hat density:  -3554.5435132514622     
##Inside build_kohn_sham_matrix() before doing any function calls
 i). ELECTRON ONLY CALLS
 1. Electron_pw   1209.4678941155951     
 2. Electron_1c   391.68533864849041     
 ########## After 1st poisson call pure hartree  (sum of above two quantities) ##########   1601.1532327640855     
 ########################
ii). NUCLEAR ONLY CALLS
 1. Nuclear_pw   1890.3254484119302     
 2. Nuclear_1c  -337.35001003422531     
iii). REGULAR CALL (ELECTRON+NUCLEAR)
 1. Hartree_pw   135.81290828391263     
 2. Hartree_1c   75.114932620075749     
 Regular: Before call to qs_vxc Regular_exc, exc1   0.0000000000000000        0.0000000000000000     
 Regular: After call to qs_vxc_create Regular_exc, exc1   0.0000000000000000        0.0000000000000000     
 iv). EXCHANGE ENERGY   -139.04310004379892     
 v). POTENTIAL ENERGY FROM CORE HAMILTONIAN   -5687.3342060798614     
 vi). KINETIC ENERGY    3554.3489672412297     
 vii). SELF ENERGY   -1493.4430152734726     
      
 E_NUC is    59.532423104232294     
      
IN build_kohn_sham_matrix() CALLING qs_ks_atom(),updates single atom contributions due to gapw
Inside build_kohn_sham_matrix() after doing all function calls and evaluating energy
 CHECK ON B IS DONE, E_B after passing modified PB_hat density:  -3554.5435132519146     
 DOING ANTI-SYMMETRIC PART OF VAB
##Inside build_kohn_sham_matrix() before doing any function calls
 i). ELECTRON ONLY CALLS
 1. Electron_pw   4.0645037887814387E-008
 2. Electron_1c   6.8921482731306317E-018
 ########## After 1st poisson call pure hartree  (sum of above two quantities) ##########   4.0645037894706535E-008
 ########################
ii). NUCLEAR ONLY CALLS
 1. Nuclear_pw   1890.3254484119302     
 2. Nuclear_1c  -337.35001003422531     
iii). REGULAR CALL (ELECTRON+NUCLEAR)
 1. Hartree_pw   1890.3210599024683     
 2. Hartree_1c  -337.35001008271729     
 Regular: Before call to qs_vxc Regular_exc, exc1   0.0000000000000000        0.0000000000000000     
 Regular: After call to qs_vxc_create Regular_exc, exc1   0.0000000000000000        0.0000000000000000     
 iv). EXCHANGE ENERGY   -1.5936010898257968E-002
 v). POTENTIAL ENERGY FROM CORE HAMILTONIAN    6.0936431253111822E-007
 vi). KINETIC ENERGY   -1.8086154853334005E-004
 vii). SELF ENERGY   -1493.4430152734726     
      
 E_NUC is    59.532423104232294     
      
IN build_kohn_sham_matrix() CALLING qs_ks_atom(),updates single atom contributions due to gapw
Inside build_kohn_sham_matrix() after doing all function calls and evaluating energy
 DOING SYMMETRIC PART OF VAB
##Inside build_kohn_sham_matrix() before doing any function calls
 i). ELECTRON ONLY CALLS
 1. Electron_pw  0.20888364342446852     
 2. Electron_1c   6.7696506231377684E-002
 ########## After 1st poisson call pure hartree  (sum of above two quantities) ##########  0.27658014965584621     
 ########################
 ehartree, ehartree_1c after multiplying with DTPROD/DHPROD   15.888764577316806        5.1493445469614176     
 dtprod, dhprod are   1.0000000000000133        1.3146625869369275E-002
 J2_AB is    21.038109124278222     
ii). NUCLEAR ONLY CALLS
 1. Nuclear_pw   1890.3254484119302     
 2. Nuclear_1c  -337.35001003422531     
iii). REGULAR CALL (ELECTRON+NUCLEAR)
 1. Hartree_pw   1851.5801004147952     
 2. Hartree_1c  -337.00972509474957     
 Regular: Before call to qs_vxc Regular_exc, exc1   0.0000000000000000        0.0000000000000000     
 Regular: After call to qs_vxc_create Regular_exc, exc1   0.0000000000000000        0.0000000000000000     
 iv). EXCHANGE ENERGY   -3.9953466006247211E-002
 v). POTENTIAL ENERGY FROM CORE HAMILTONIAN   -74.767454195440223     
 vi). KINETIC ENERGY    46.724835055631502     
 vii). SELF ENERGY   -1493.4430152734726     
      
 E_NUC is    59.532423104232294     
      
IN build_kohn_sham_matrix() CALLING qs_ks_atom(),updates single atom contributions due to gapw
 ########################
 #########  ET  #########
 ------------------------
 E_NUC   59.532423104232294     
 HAA <a|H|a>  -3614.0759363556954     
 HBB <b|H|b>  -3614.0759363561474     
             
 <a|H1|b>  -66.724262347124963     
 <a|H2|b>   19.211217924464847     
 ...<a|J2|b>   21.038109124278222     
 ...<a|K2|b>  -1.8268911998133730     
 HAB <a|H|b>  -47.513044422660116     
 SAB   1.3146625869369450E-002
 VAB   1.4024944301923014E-004
  VAB in different units 
 ------------------------
          3.8163814296644913E-003 eV
          30.781194806569090      1/cm
          8.8007853476394921E-002 kcal/mol
         0.36822485894523632      kJ/mol
          922797005123.81812      Hertz
 ------------------------
 ------------------------
 E+  -3614.0757948723053     
 E-  -3614.0760741519575     
 (E+ - E-)/2   1.3963982611224878E-004
          3.7997929100031746E-003 eV
          30.647399360632107      1/cm
          8.7625313094976134E-002 kcal/mol
         0.36662430998938011      kJ/mol
          918785918563.15271      Hertz
 ------------------------
 ------------------------
Inside build_kohn_sham_matrix() after doing all function calls and evaluating energy
 NO FORCE_EVAL section calculated the dipole

 ENERGY| Total FORCE_EVAL ( MIXED ) energy (a.u.):             0.000000000457021


 -------------------------------------------------------------------------------
 -                                                                             -
 -                                DBCSR STATISTICS                             -
 -                                                                             -
 -------------------------------------------------------------------------------
 COUNTER                                    TOTAL       BLAS       SMM       ACC
 flops    24 x    29 x    24               267264     100.0%      0.0%      0.0%
 flops    24 x    24 x    29              3808512     100.0%      0.0%      0.0%
 flops    24 x    24 x    30              3939840     100.0%      0.0%      0.0%
 flops inhomo. stacks                           0       0.0%      0.0%      0.0%
 flops total                         8.015616E+06     100.0%      0.0%      0.0%
 flops max/rank                      2.716416E+06     100.0%      0.0%      0.0%
 matmuls inhomo. stacks                         0       0.0%      0.0%      0.0%
 matmuls total                                236     100.0%      0.0%      0.0%
 number of processed stacks                   236     100.0%      0.0%      0.0%
 average stack size                                     1.0       0.0       0.0
 marketing flops                    10.598400E+06
 -------------------------------------------------------------------------------
 # multiplications                             78
 max memory usage/rank             692.371456E+06
 # max total images/rank                        1
 # max 3D layers                                1
 # MPI messages exchanged                    7488
 MPI messages size (bytes):
  total size                         5.342976E+06
  min size                           0.000000E+00
  max size                           5.760000E+03
  average size                     713.538452E+00
 MPI breakdown and total messages size (bytes):
             size <=      128                6540                        0
       128 < size <=     8192                 948                  5342976
      8192 < size <=    32768                   0                        0
     32768 < size <=   131072                   0                        0
    131072 < size <=  4194304                   0                        0
   4194304 < size <= 16777216                   0                        0
  16777216 < size                               0                        0
 -------------------------------------------------------------------------------

 MEMORY| Estimated peak process memory [MiB]                                 662

 -------------------------------------------------------------------------------
 -                                                                             -
 -                         MESSAGE PASSING PERFORMANCE                         -
 -                                                                             -
 -------------------------------------------------------------------------------

 ROUTINE             CALLS      AVE VOLUME [Bytes]
 MP_Group              163
 MP_Bcast              631                1032172.
 MP_Allreduce         2392                  42385.
 MP_Sync               469
 MP_Alltoall          3922                5342792.
 MP_ISendRecv         7500                  78440.
 MP_Wait             21042
 MP_comm_split          77
 MP_ISend             9768                 524092.
 MP_IRecv             9768                 523828.
 MP_Recv                12                   3072.
 MP_Memory            3112
 -------------------------------------------------------------------------------


 -------------------------------------------------------------------------------
 -                                                                             -
 -                           R E F E R E N C E S                               -
 -                                                                             -
 -------------------------------------------------------------------------------
 
 CP2K version 6.1, the CP2K developers group (2018).
 CP2K is freely available from https://www.cp2k.org/ .

 Schuett, Ole; Messmer, Peter; Hutter, Juerg; VandeVondele, Joost. 
 Electronic Structure Calculations on Graphics Processing Units, John Wiley & Sons, Ltd, 173-190 (2016). 
 GPU-Accelerated Sparse Matrix-Matrix Multiplication for Linear Scaling Density Functional Theory.
 http://dx.doi.org/10.1002/9781118670712.ch8


 Borstnik, U; VandeVondele, J; Weber, V; Hutter, J. 
 PARALLEL COMPUTING, 40 (5-6), 47-58 (2014). 
 Sparse matrix multiplication: The distributed block-compressed sparse
 row library.
 http://dx.doi.org/10.1016/j.parco.2014.03.012


 Hutter, J; Iannuzzi, M; Schiffmann, F; VandeVondele, J. 
 WILEY INTERDISCIPLINARY REVIEWS-COMPUTATIONAL MOLECULAR SCIENCE, 4 (1), 15-25 (2014). 
 CP2K: atomistic simulations of condensed matter systems.
 http://dx.doi.org/10.1002/wcms.1159


 Guidon, M; Hutter, J; VandeVondele, J. 
 JOURNAL OF CHEMICAL THEORY AND COMPUTATION, 5 (11), 3010-3021 (2009). 
 Robust Periodic Hartree-Fock Exchange for Large-Scale Simulations Using
 Gaussian Basis Sets.
 http://dx.doi.org/10.1021/ct900494g


 Guidon, M; Schiffmann, F; Hutter, J; VandeVondele, J. 
 JOURNAL OF CHEMICAL PHYSICS, 128 (21), 214104 (2008). 
 Ab initio molecular dynamics using hybrid density functionals.
 http://dx.doi.org/10.1063/1.2931945


 Genovese, L; Deutsch, T; Goedecker, S. 
 JOURNAL OF CHEMICAL PHYSICS, 127 (5), 054704 (2007). 
 Efficient and accurate three-dimensional Poisson solver for surface
 problems.
 http://dx.doi.org/10.1063/1.2754685


 Genovese, L; Deutsch, T; Neelov, A; Goedecker, S; Beylkin, G. 
 JOURNAL OF CHEMICAL PHYSICS, 125 (7), 074105 (2006). 
 Efficient solution of Poisson's equation with free boundary conditions.
 http://dx.doi.org/10.1063/1.2335442


 Frigo, M; Johnson, SG. 
 PROCEEDINGS OF THE IEEE, 93 (2), 216-231 (2005). 
 The design and implementation of FFTW3.
 http://dx.doi.org/10.1109/JPROC.2004.840301


 Lippert, G; Hutter, J; Parrinello, M. 
 THEORETICAL CHEMISTRY ACCOUNTS, 103 (2), 124-140 (1999). 
 The Gaussian and augmented-plane-wave density functional method for ab
 initio molecular dynamics simulations.
 http://dx.doi.org/10.1007/s002140050523


 Krack, M; Parrinello, M. 
 PHYSICAL CHEMISTRY CHEMICAL PHYSICS, 2 (10), 2105-2112 (2000). 
 All-electron ab-initio molecular dynamics.
 http://dx.doi.org/10.1039/b001167n


 -------------------------------------------------------------------------------
 -                                                                             -
 -                                T I M I N G                                  -
 -                                                                             -
 -------------------------------------------------------------------------------
 SUBROUTINE                       CALLS  ASD         SELF TIME        TOTAL TIME
                                MAXIMUM       AVERAGE  MAXIMUM  AVERAGE  MAXIMUM
 CP2K                                 1  1.0    0.054    0.064  237.222  237.223
 qs_ks_update_qs_env                 42  4.7    0.001    0.001  210.670  210.676
 rebuild_ks_matrix                   42  5.7    0.000    0.000  210.666  210.673
 qs_ks_build_kohn_sham_matrix        42  6.7    0.013    0.015  210.666  210.673
 qs_energies                          2  2.0    0.000    0.000  203.068  203.070
 scf_env_do_scf                       2  3.0    0.000    0.000  201.572  201.576
 scf_env_do_scf_inner_loop           38  4.0    0.002    0.003  201.572  201.576
 prepare_gapw_den                    50  7.3    0.005    0.006  138.390  138.613
 calculate_rho_atom                  92  8.5   29.078  130.859   29.079  130.878
 mp_sum_dv                          105  8.2  101.513  108.688  101.513  108.688
 pw_transfer                        982  9.0    0.044    0.050   43.350   44.700
 fft_wrap_pw1pw2                    932  9.9    0.007    0.008   43.210   44.547
 fft_wrap_pw1pw2_140                440 10.6    2.493    2.986   40.428   42.397
 fft3d_ps                           932 11.9   22.470   24.458   34.608   35.209
 qs_rho_update_rho                   44  4.7    0.000    0.000   24.971   24.972
 calculate_rho_elec                  88  5.7    0.327    0.554   24.906   24.906
 density_rs2pw                       88  6.7    0.004    0.005   23.317   23.763
 pw_poisson_solve                    50  7.3    0.707    0.805   22.814   22.823
 hfx_ks_matrix                       42  7.7    0.001    0.001   17.408   17.410
 integrate_four_center               42  8.7    0.016    0.018   17.407   17.407
 mp_sum_d                          1281  5.7   12.117   14.758   12.117   14.758
 rs_pw_transfer                     754  9.2    0.010    0.012   13.552   13.910
 sum_up_and_integrate                38  8.0    0.000    0.001   12.715   12.799
 integrate_v_rspace                  76  9.0    0.066    0.250   12.714   12.799
 potential_pw2rs                     76 10.0    0.012    0.013   12.632   12.672
 Vh_1c_gg_integrals                  50  7.3    1.057   11.991   12.122   12.605
 mp_alltoall_z22v                   932 13.9    5.283   10.016    5.283   10.016
 ps_wavelet_solve                    50  8.3    8.444    9.065    9.744    9.811
 powell_optimize                2309856 11.0    8.438    8.926    8.438    8.926
 yz_to_x                            528 12.4    3.620    4.744    6.952    8.826
 calc_pair_dist_radii                 2 10.0    3.802    3.833    7.942    8.439
 calc_screening_functions             2 10.0    2.783    2.813    7.081    7.282
 put_rho0_on_grid                    50  8.3    0.144    0.152    7.050    7.273
 mp_waitany                        8520 11.2    3.496    6.573    3.496    6.573
 rs_pw_transfer_RS2PW_140           140  9.3    3.671    4.462    5.723    6.225
 rs_pw_transfer_PW2RS_140           122 11.1    3.273    3.975    5.221    5.687
 x_to_yz                            404 13.7    3.220    4.003    5.171    5.645
 -------------------------------------------------------------------------------

 The number of warnings for this run is : 4
 
 -------------------------------------------------------------------------------
  **** **** ******  **  PROGRAM ENDED AT                 2019-07-25 13:16:45.466
 ***** ** ***  *** **   PROGRAM RAN ON            cpn-p28-41.cbls.ccr.buffalo.ed
 **    ****   ******    PROGRAM RAN BY                                  pavankum
 ***** **    ** ** **   PROGRAM PROCESS ID                                 90659
  **** **  *******  **  PROGRAM STOPPED IN /projects/academic/mdupuis2/pavan/VAB
                                           _calculation/results_for_paper/2.Zn2+
                                           /gapw_all_elec/r_8
