 DBCSR| Multiplication driver                                               BLAS
 DBCSR| Multrec recursion limit                                              512
 DBCSR| Multiplication stack size                                           1000
 DBCSR| Maximum elements for images                                    UNLIMITED
 DBCSR| Multiplicative factor virtual images                                   1
 DBCSR| Multiplication size stacks                                             3
 DBCSR| Number of 3D layers                                               SINGLE
 DBCSR| Use MPI memory allocation                                              T
 DBCSR| Use RMA algorithm                                                      F
 DBCSR| Use Communication thread                                               T
 DBCSR| Communication thread load                                             87


  **** **** ******  **  PROGRAM STARTED AT               2019-08-06 16:48:31.303
 ***** ** ***  *** **   PROGRAM STARTED ON        cpn-p28-18.cbls.ccr.buffalo.ed
 **    ****   ******    PROGRAM STARTED BY                              pavankum
 ***** **    ** ** **   PROGRAM PROCESS ID                                128835
  **** **  *******  **  PROGRAM STARTED IN /projects/academic/mdupuis2/pavan/VAB
                                           _calculation/results_for_paper/3.1D_F
                                           e_7units/blyp_plusU7/mixed

 CP2K| version string:                                          CP2K version 6.1
 CP2K| source code revision number:                                    svn:18464
 CP2K| cp2kflags: libint fftw3 libxc parallel mpi3 scalapack libderiv_max_am1=5 
 CP2K|            libint_max_am=6
 CP2K| is freely available from                            https://www.cp2k.org/
 CP2K| Program compiled at                          Fri Nov 30 14:17:09 EST 2018
 CP2K| Program compiled on                       srv-p22-12.cbls.ccr.buffalo.edu
 CP2K| Program compiled for                                                local
 CP2K| Data directory path    /projects/academic/mdupuis2/pavan/cp2k/cp2k-6.1/da
 CP2K| Input file name                                                 input.inp

 GLOBAL| Force Environment number                                              3
 GLOBAL| Basis set file name                                           BASIS_SET
 GLOBAL| Potential file name                                           POTENTIAL
 GLOBAL| MM Potential file name                                     MM_POTENTIAL
 GLOBAL| Coordinate file name                                     ./midpoint.xyz
 GLOBAL| Force Environment number                                              1
 GLOBAL| Basis set file name            /projects/academic/mdupuis2/pavan/BASIS_
 GLOBAL| Potential file name            /projects/academic/mdupuis2/pavan/POTENT
 GLOBAL| MM Potential file name                                     MM_POTENTIAL
 GLOBAL| Coordinate file name                                     ./midpoint.xyz
 GLOBAL| Force Environment number                                              2
 GLOBAL| Basis set file name            /projects/academic/mdupuis2/pavan/BASIS_
 GLOBAL| Potential file name            /projects/academic/mdupuis2/pavan/POTENT
 GLOBAL| MM Potential file name                                     MM_POTENTIAL
 GLOBAL| Coordinate file name                                     ./midpoint.xyz
 GLOBAL| Method name                                                        CP2K
 GLOBAL| Project name                                                      p_fe_
 GLOBAL| Preferred FFT library                                             FFTW3
 GLOBAL| Preferred diagonalization lib.                                       SL
 GLOBAL| Run type                                                         ENERGY
 GLOBAL| All-to-all communication in single precision                          F
 GLOBAL| FFTs using library dependent lengths                                  T
 GLOBAL| Global print level                                               MEDIUM
 GLOBAL| Total number of message passing processes                           100
 GLOBAL| Number of threads for this process                                    1
 GLOBAL| This output is from process                                           0
 GLOBAL| CPU model name :  Intel(R) Xeon(R) CPU E5-2650 v3 @ 2.30GHz

 MEMORY| system memory details [Kb]
 MEMORY|                        rank 0           min           max       average
 MEMORY| MemTotal             65684716      65684716      65684716      65684716
 MEMORY| MemFree              60321048      60266176      61107804      60464268
 MEMORY| Buffers                506284        330524        509016        470487
 MEMORY| Cached                 812268        592556        812268        763568
 MEMORY| Slab                   432264        368604        432264        418576
 MEMORY| SReclaimable           256752        195588        257956        244646
 MEMORY| MemLikelyFree        61896352      61832196      62226472      61942970


 *** Fundamental physical constants (SI units) ***

 *** Literature: B. J. Mohr and B. N. Taylor,
 ***             CODATA recommended values of the fundamental physical
 ***             constants: 2006, Web Version 5.1
 ***             http://physics.nist.gov/constants

 Speed of light in vacuum [m/s]                             2.99792458000000E+08
 Magnetic constant or permeability of vacuum [N/A**2]       1.25663706143592E-06
 Electric constant or permittivity of vacuum [F/m]          8.85418781762039E-12
 Planck constant (h) [J*s]                                  6.62606896000000E-34
 Planck constant (h-bar) [J*s]                              1.05457162825177E-34
 Elementary charge [C]                                      1.60217648700000E-19
 Electron mass [kg]                                         9.10938215000000E-31
 Electron g factor [ ]                                     -2.00231930436220E+00
 Proton mass [kg]                                           1.67262163700000E-27
 Fine-structure constant                                    7.29735253760000E-03
 Rydberg constant [1/m]                                     1.09737315685270E+07
 Avogadro constant [1/mol]                                  6.02214179000000E+23
 Boltzmann constant [J/K]                                   1.38065040000000E-23
 Atomic mass unit [kg]                                      1.66053878200000E-27
 Bohr radius [m]                                            5.29177208590000E-11

 *** Conversion factors ***

 [u] -> [a.u.]                                              1.82288848426455E+03
 [Angstrom] -> [Bohr] = [a.u.]                              1.88972613288564E+00
 [a.u.] = [Bohr] -> [Angstrom]                              5.29177208590000E-01
 [a.u.] -> [s]                                              2.41888432650478E-17
 [a.u.] -> [fs]                                             2.41888432650478E-02
 [a.u.] -> [J]                                              4.35974393937059E-18
 [a.u.] -> [N]                                              8.23872205491840E-08
 [a.u.] -> [K]                                              3.15774647902944E+05
 [a.u.] -> [kJ/mol]                                         2.62549961709828E+03
 [a.u.] -> [kcal/mol]                                       6.27509468713739E+02
 [a.u.] -> [Pa]                                             2.94210107994716E+13
 [a.u.] -> [bar]                                            2.94210107994716E+08
 [a.u.] -> [atm]                                            2.90362800883016E+08
 [a.u.] -> [eV]                                             2.72113838565563E+01
 [a.u.] -> [Hz]                                             6.57968392072181E+15
 [a.u.] -> [1/cm] (wave numbers)                            2.19474631370540E+05
 [a.u./Bohr**2] -> [1/cm]                                   5.14048714338585E+03
 
 MIXED_ENV| Number of created MPI groups:                                      1
 MIXED_ENV| Task to group correspondence:
  (   0 :    0)  (   1 :    0)  (   2 :    0)  (   3 :    0)
  (   4 :    0)  (   5 :    0)  (   6 :    0)  (   7 :    0)
  (   8 :    0)  (   9 :    0)  (  10 :    0)  (  11 :    0)
  (  12 :    0)  (  13 :    0)  (  14 :    0)  (  15 :    0)
  (  16 :    0)  (  17 :    0)  (  18 :    0)  (  19 :    0)
  (  20 :    0)  (  21 :    0)  (  22 :    0)  (  23 :    0)
  (  24 :    0)  (  25 :    0)  (  26 :    0)  (  27 :    0)
  (  28 :    0)  (  29 :    0)  (  30 :    0)  (  31 :    0)
  (  32 :    0)  (  33 :    0)  (  34 :    0)  (  35 :    0)
  (  36 :    0)  (  37 :    0)  (  38 :    0)  (  39 :    0)
  (  40 :    0)  (  41 :    0)  (  42 :    0)  (  43 :    0)
  (  44 :    0)  (  45 :    0)  (  46 :    0)  (  47 :    0)
  (  48 :    0)  (  49 :    0)  (  50 :    0)  (  51 :    0)
  (  52 :    0)  (  53 :    0)  (  54 :    0)  (  55 :    0)
  (  56 :    0)  (  57 :    0)  (  58 :    0)  (  59 :    0)
  (  60 :    0)  (  61 :    0)  (  62 :    0)  (  63 :    0)
  (  64 :    0)  (  65 :    0)  (  66 :    0)  (  67 :    0)
  (  68 :    0)  (  69 :    0)  (  70 :    0)  (  71 :    0)
  (  72 :    0)  (  73 :    0)  (  74 :    0)  (  75 :    0)
  (  76 :    0)  (  77 :    0)  (  78 :    0)  (  79 :    0)
  (  80 :    0)  (  81 :    0)  (  82 :    0)  (  83 :    0)
  (  84 :    0)  (  85 :    0)  (  86 :    0)  (  87 :    0)
  (  88 :    0)  (  89 :    0)  (  90 :    0)  (  91 :    0)
  (  92 :    0)  (  93 :    0)  (  94 :    0)  (  95 :    0)
  (  96 :    0)  (  97 :    0)  (  98 :    0)  (  99 :    0)
          ----------------------------------------------------------------------
 COLVARS| COLVAR INPUT INDEX:        1
 COLVARS| ENERGY          >>> ATOMS:                                        all!
          ----------------------------------------------------------------------

 CELL_TOP| Volume [angstrom^3]:                                        26196.625
 CELL_TOP| Vector a [angstrom    21.385     0.000     0.000    |a| =      21.385
 CELL_TOP| Vector b [angstrom     0.000    35.000     0.000    |b| =      35.000
 CELL_TOP| Vector c [angstrom     0.000     0.000    35.000    |c| =      35.000
 CELL_TOP| Angle (b,c), alpha [degree]:                                   90.000
 CELL_TOP| Angle (a,c), beta  [degree]:                                   90.000
 CELL_TOP| Angle (a,b), gamma [degree]:                                   90.000
 CELL_TOP| Numerically orthorhombic:                                         YES

 GENERATE|  Preliminary Number of Bonds generated:                             0
 GENERATE|  Achieved consistency in connectivity generation.

 CELL| Volume [angstrom^3]:                                            26196.625
 CELL| Vector a [angstrom]:      21.385     0.000     0.000    |a| =      21.385
 CELL| Vector b [angstrom]:       0.000    35.000     0.000    |b| =      35.000
 CELL| Vector c [angstrom]:       0.000     0.000    35.000    |c| =      35.000
 CELL| Angle (b,c), alpha [degree]:                                       90.000
 CELL| Angle (a,c), beta  [degree]:                                       90.000
 CELL| Angle (a,b), gamma [degree]:                                       90.000
 CELL| Numerically orthorhombic:                                             YES

 CELL_REF| Volume [angstrom^3]:                                        26196.625
 CELL_REF| Vector a [angstrom    21.385     0.000     0.000    |a| =      21.385
 CELL_REF| Vector b [angstrom     0.000    35.000     0.000    |b| =      35.000
 CELL_REF| Vector c [angstrom     0.000     0.000    35.000    |c| =      35.000
 CELL_REF| Angle (b,c), alpha [degree]:                                   90.000
 CELL_REF| Angle (a,c), beta  [degree]:                                   90.000
 CELL_REF| Angle (a,b), gamma [degree]:                                   90.000
 CELL_REF| Numerically orthorhombic:                                         YES


 MOLECULE KIND INFORMATION


 All atoms are their own molecule, skipping detailed information

 *** WARNING in force_env_methods.F:1097 :: ASSERTION (cond) failed at   ***
 *** line   1098 Error (0.129985E-11) in computing numerical derivatives ***
 *** larger then(0.100000E-11) .                                         ***


 *** WARNING in force_env_methods.F:1097 :: ASSERTION (cond) failed at   ***
 *** line   1098 Error (0.129985E-11) in computing numerical derivatives ***
 *** larger then(0.100000E-11) .                                         ***


  HFX_INFO| Replica ID:                                                        1
  HFX_INFO| EPS_SCHWARZ:                                                 1.0E-10
  HFX_INFO| EPS_SCHWARZ_FORCES                                           1.0E-06
  HFX_INFO| EPS_STORAGE_SCALING:                                         1.0E+00
  HFX_INFO| NBINS:                                                            64
  HFX_INFO| BLOCK_SIZE:                                                        1
  HFX_INFO| FRACTION:                                               1.0000000000
  HFX_INFO| Interaction Potential:                                     TRUNCATED
  HFX_INFO| Cutoff Radius [angstrom]:                              10.6711000000
  HFX_INFO| NUMBER_OF_SHELLS:                                               AUTO
  HFX_INFO| Number of periodic shells considered:                             -1
  HFX_INFO| Number of periodic cells considered:                              27

 nspins, nimgs, gapw_xc           2           1 F 

 ####### CHECKS ON A and B #######
  E_A before:  -1335.5414500948375     
  E_B before:  -1335.5414665791554     
 ####### - #######
##Inside build_kohn_sham_matrix() before doing any function calls
 i). ELECTRON ONLY CALLS
 1. Electron_pw   4601.1237218561364     
 2. Electron_1c   0.0000000000000000     
 ########## After 1st poisson call pure hartree  (sum of above two quantities) ##########   4601.1237218561364     
 ########################
 1. Nuclear_pw   6202.7759154605674     
 2. Nuclear_1c   0.0000000000000000     
 1. Hartree_pw   755.46989381914091     
 2. Hartree_1c   0.0000000000000000     
 Regular: Before call to qs_vxc Regular_exc, exc1  -203.85915270377049        0.0000000000000000     
 Regular: After call to qs_vxc_create Regular_exc, exc1   0.0000000000000000        0.0000000000000000     

  HFX_MEM_INFO| Est. max. program size before HFX [MiB]:                    1249
  HFX_MEM_INFO| Number of cart. primitive ERI's calculated:          75681845712
  HFX_MEM_INFO| Number of sph. ERI's calculated:                      4835535658
  HFX_MEM_INFO| Number of sph. ERI's stored in-core:                  4835535658
  HFX_MEM_INFO| Number of sph. ERI's stored on disk:                           0
  HFX_MEM_INFO| Number of sph. ERI's calculated on the fly:                    0
  HFX_MEM_INFO| Total memory consumption ERI's RAM [MiB]:                  12396
  HFX_MEM_INFO| Whereof max-vals [MiB]:                                        4
  HFX_MEM_INFO| Total compression factor ERI's RAM:                         2.98
  HFX_MEM_INFO| Total memory consumption ERI's disk [MiB]:                     0
  HFX_MEM_INFO| Total compression factor ERI's disk:                        0.00
  HFX_MEM_INFO| Size of density/Fock matrix [MiB]:                             0
  HFX_MEM_INFO| Size of buffers [MiB]:                                         1
  HFX_MEM_INFO| Number of periodic image cells considered:                    27
  HFX_MEM_INFO| Est. max. program size after HFX  [MiB]:                    1364

 iv). EXCHANGE ENERGY   -190.30192770969612     
 v). POTENTIAL ENERGY FROM CORE HAMILTONIAN   -98.477254351790407     
 vi). KINETIC ENERGY    843.06903362904450     
 vii). SELF ENERGY   -2631.5958042947350     
      
 E_NUC is    3571.1801111658324     
      
IN build_kohn_sham_matrix() CALLING qs_ks_atom(),updates single atom contributions due to gapw
Inside build_kohn_sham_matrix() after doing all function calls and evaluating energy
 CHECK ON A IS DONE, E_A after passing modified PA_hat density:  -1321.8360584911443     
##Inside build_kohn_sham_matrix() before doing any function calls
 i). ELECTRON ONLY CALLS
 1. Electron_pw   4601.1250756249428     
 2. Electron_1c   0.0000000000000000     
 ########## After 1st poisson call pure hartree  (sum of above two quantities) ##########   4601.1250756249428     
 ########################
 1. Nuclear_pw   6202.7759154605674     
 2. Nuclear_1c   0.0000000000000000     
 1. Hartree_pw   755.47062350847261     
 2. Hartree_1c   0.0000000000000000     
 Regular: Before call to qs_vxc Regular_exc, exc1   0.0000000000000000        0.0000000000000000     
 Regular: After call to qs_vxc_create Regular_exc, exc1   0.0000000000000000        0.0000000000000000     
 iv). EXCHANGE ENERGY   -190.30216340187053     
 v). POTENTIAL ENERGY FROM CORE HAMILTONIAN   -98.477095993886337     
 vi). KINETIC ENERGY    843.06816805660867     
 vii). SELF ENERGY   -2631.5958042947350     
      
 E_NUC is    3571.1801111658324     
      
IN build_kohn_sham_matrix() CALLING qs_ks_atom(),updates single atom contributions due to gapw
Inside build_kohn_sham_matrix() after doing all function calls and evaluating energy
 CHECK ON B IS DONE, E_B after passing modified PB_hat density:  -1321.8362717085188     
 DOING ANTI-SYMMETRIC PART OF VAB
##Inside build_kohn_sham_matrix() before doing any function calls
 i). ELECTRON ONLY CALLS
 1. Electron_pw   9.0962409833969353E-004
 2. Electron_1c   0.0000000000000000     
 ########## After 1st poisson call pure hartree  (sum of above two quantities) ##########   9.0962409833969353E-004
 ########################
 1. Nuclear_pw   6202.7759154605674     
 2. Nuclear_1c   0.0000000000000000     
 1. Hartree_pw   6203.8893621378038     
 2. Hartree_1c   0.0000000000000000     
 Regular: Before call to qs_vxc Regular_exc, exc1   0.0000000000000000        0.0000000000000000     
 Regular: After call to qs_vxc_create Regular_exc, exc1   0.0000000000000000        0.0000000000000000     
 iv). EXCHANGE ENERGY   -3.2609176696557031E-002
 v). POTENTIAL ENERGY FROM CORE HAMILTONIAN   -5.9135751952987294E-004
 vi). KINETIC ENERGY   -7.4035839072145310E-003
 vii). SELF ENERGY   -2631.5958042947350     
      
 E_NUC is    3571.1801111658324     
      
IN build_kohn_sham_matrix() CALLING qs_ks_atom(),updates single atom contributions due to gapw
Inside build_kohn_sham_matrix() after doing all function calls and evaluating energy
 DOING SYMMETRIC PART OF VAB
##Inside build_kohn_sham_matrix() before doing any function calls
 i). ELECTRON ONLY CALLS
 1. Electron_pw   61.278807463958572     
 2. Electron_1c   0.0000000000000000     
 ########## After 1st poisson call pure hartree  (sum of above two quantities) ##########   61.278807463958572     
 ########################
 ehartree, ehartree_1c after multiplying with DTPROD/DHPROD  -530.85691005952151       -0.0000000000000000     
 dtprod, dhprod are  -1.0000000000002873       0.11543375682367096     
 J2_AB is   -530.85691005952151     
 1. Nuclear_pw   6202.7759154605674     
 2. Nuclear_1c   0.0000000000000000     
 1. Hartree_pw   5104.4771405805423     
 2. Hartree_1c   0.0000000000000000     
 Regular: Before call to qs_vxc Regular_exc, exc1   0.0000000000000000        0.0000000000000000     
 Regular: After call to qs_vxc_create Regular_exc, exc1   0.0000000000000000        0.0000000000000000     
 iv). EXCHANGE ENERGY   -2.5660104375278596     
 v). POTENTIAL ENERGY FROM CORE HAMILTONIAN   -11.317638048812171     
 vi). KINETIC ENERGY    97.159389409876198     
 vii). SELF ENERGY   -2631.5958042947350     
      
 E_NUC is    3571.1801111658324     
      
IN build_kohn_sham_matrix() CALLING qs_ks_atom(),updates single atom contributions due to gapw
 ########################
 #########  ET  #########
 ------------------------
 E_NUC   3571.1801111658324     
 HAA <a|H|a>  -4893.0161704907614     
 HBB <b|H|b>  -4893.0163837081354     
             
 <a|H1|b>   1073.7358314001192     
 <a|H2|b>  -508.91011277472131     
 ...<a|J2|b>  -530.85691005952151     
 ...<a|K2|b>   21.946797284800219     
 HAB <a|H|b>   564.82571862539794     
 SAB -0.11543375682370413     
 VAB   6.5557777236114603E-003
  VAB in different units 
 ------------------------
         0.17839178411545228      eV
          1438.8268992368232      1/cm
          4.1138125963487928      kcal/mol
          17.212191903123347      kJ/mol
          43134945275872.547      Hertz
 ------------------------
 ------------------------
 E+  -4893.0089644322597     
 E-  -4893.0220764522364     
 (E+ - E-)/2   6.5560099890951311E-003
         0.17839810438068507      eV
          1438.8778756182319      1/cm
          4.1139583451390518      kcal/mol
          17.212801716061794      kJ/mol
          43136473509340.797      Hertz
 ------------------------
 ------------------------
Inside build_kohn_sham_matrix() after doing all function calls and evaluating energy
 NO FORCE_EVAL section calculated the dipole

 ENERGY| Total FORCE_EVAL ( MIXED ) energy (a.u.):             0.000016484317939


 -------------------------------------------------------------------------------
 -                                                                             -
 -                                DBCSR STATISTICS                             -
 -                                                                             -
 -------------------------------------------------------------------------------
 COUNTER                                    TOTAL       BLAS       SMM       ACC
 flops    13 x    13 x    13                 8788     100.0%      0.0%      0.0%
 flops    15 x    15 x    15                13500     100.0%      0.0%      0.0%
 flops     2 x    13 x    13                56784     100.0%      0.0%      0.0%
 flops     2 x    15 x    15                75600     100.0%      0.0%      0.0%
 flops    13 x    13 x    32                86528     100.0%      0.0%      0.0%
 flops    13 x    32 x    13                86528     100.0%      0.0%      0.0%
 flops    32 x    13 x    13                86528     100.0%      0.0%      0.0%
 flops    19 x    13 x    13                89908     100.0%      0.0%      0.0%
 flops    19 x    15 x    15               119700     100.0%      0.0%      0.0%
 flops    15 x    15 x    32               144000     100.0%      0.0%      0.0%
 flops    15 x    32 x    15               144000     100.0%      0.0%      0.0%
 flops    32 x    15 x    15               144000     100.0%      0.0%      0.0%
 flops     8 x    13 x    13               151424     100.0%      0.0%      0.0%
 flops     8 x    15 x    15               201600     100.0%      0.0%      0.0%
 flops    43 x    13 x    13               261612     100.0%      0.0%      0.0%
 flops    13 x    13 x    43               261612     100.0%      0.0%      0.0%
 flops    44 x    13 x    13               267696     100.0%      0.0%      0.0%
 flops    13 x    13 x    44               267696     100.0%      0.0%      0.0%
 flops    43 x    15 x    15               348300     100.0%      0.0%      0.0%
 flops    15 x    15 x    43               348300     100.0%      0.0%      0.0%
 flops    44 x    15 x    15               356400     100.0%      0.0%      0.0%
 flops    15 x    15 x    44               356400     100.0%      0.0%      0.0%
 flops    45 x    13 x    13               365040     100.0%      0.0%      0.0%
 flops    13 x    13 x    45               365040     100.0%      0.0%      0.0%
 flops     2 x     2 x    13               375648     100.0%      0.0%      0.0%
 flops     2 x     2 x    15               433440     100.0%      0.0%      0.0%
 flops    45 x    15 x    15               486000     100.0%      0.0%      0.0%
 flops    15 x    15 x    45               486000     100.0%      0.0%      0.0%
 flops    19 x     2 x    13               580944     100.0%      0.0%      0.0%
 flops     2 x    19 x    13               580944     100.0%      0.0%      0.0%
 flops    19 x     2 x    15               670320     100.0%      0.0%      0.0%
 flops     2 x    19 x    15               670320     100.0%      0.0%      0.0%
 flops    32 x    32 x    13               851968     100.0%      0.0%      0.0%
 flops    13 x    32 x    32               851968     100.0%      0.0%      0.0%
 flops    32 x    13 x    32               851968     100.0%      0.0%      0.0%
 flops     8 x     2 x    13               978432     100.0%      0.0%      0.0%
 flops     2 x     8 x    13               978432     100.0%      0.0%      0.0%
 flops    19 x    19 x    13              1051232     100.0%      0.0%      0.0%
 flops     8 x     2 x    15              1128960     100.0%      0.0%      0.0%
 flops     2 x     8 x    15              1128960     100.0%      0.0%      0.0%
 flops    19 x    19 x    15              1212960     100.0%      0.0%      0.0%
 flops    32 x    32 x    15              1536000     100.0%      0.0%      0.0%
 flops    15 x    32 x    32              1536000     100.0%      0.0%      0.0%
 flops    32 x    15 x    32              1536000     100.0%      0.0%      0.0%
 flops    19 x     8 x    13              1549184     100.0%      0.0%      0.0%
 flops     8 x    19 x    13              1549184     100.0%      0.0%      0.0%
 flops     2 x    15 x     2              1693440     100.0%      0.0%      0.0%
 flops    43 x    13 x    43              1730664     100.0%      0.0%      0.0%
 flops    43 x    13 x    44              1770912     100.0%      0.0%      0.0%
 flops    44 x    13 x    43              1770912     100.0%      0.0%      0.0%
 flops    19 x     8 x    15              1787520     100.0%      0.0%      0.0%
 flops     8 x    19 x    15              1787520     100.0%      0.0%      0.0%
 flops    44 x    13 x    44              1812096     100.0%      0.0%      0.0%
 flops     2 x    13 x     2              1834560     100.0%      0.0%      0.0%
 flops    43 x    15 x    43              1996920     100.0%      0.0%      0.0%
 flops    43 x    15 x    44              2043360     100.0%      0.0%      0.0%
 flops    44 x    15 x    43              2043360     100.0%      0.0%      0.0%
 flops    44 x    15 x    44              2090880     100.0%      0.0%      0.0%
 flops    43 x    13 x    45              2414880     100.0%      0.0%      0.0%
 flops    45 x    13 x    43              2414880     100.0%      0.0%      0.0%
 flops    45 x    13 x    44              2471040     100.0%      0.0%      0.0%
 flops    44 x    13 x    45              2471040     100.0%      0.0%      0.0%
 flops    43 x    13 x    32              2575872     100.0%      0.0%      0.0%
 flops    43 x    32 x    13              2575872     100.0%      0.0%      0.0%
 flops    13 x    32 x    43              2575872     100.0%      0.0%      0.0%
 flops    32 x    13 x    43              2575872     100.0%      0.0%      0.0%
 flops    44 x    13 x    32              2635776     100.0%      0.0%      0.0%
 flops    44 x    32 x    13              2635776     100.0%      0.0%      0.0%
 flops    13 x    32 x    44              2635776     100.0%      0.0%      0.0%
 flops    32 x    13 x    44              2635776     100.0%      0.0%      0.0%
 flops    19 x    15 x     2              2681280     100.0%      0.0%      0.0%
 flops     2 x    15 x    19              2681280     100.0%      0.0%      0.0%
 flops     8 x     8 x    13              2702336     100.0%      0.0%      0.0%
 flops    43 x    15 x    45              2786400     100.0%      0.0%      0.0%
 flops    45 x    15 x    43              2786400     100.0%      0.0%      0.0%
 flops    45 x    15 x    44              2851200     100.0%      0.0%      0.0%
 flops    44 x    15 x    45              2851200     100.0%      0.0%      0.0%
 flops    19 x    13 x     2              2904720     100.0%      0.0%      0.0%
 flops     2 x    13 x    19              2904720     100.0%      0.0%      0.0%
 flops     2 x    32 x    32              3096576     100.0%      0.0%      0.0%
 flops     8 x     8 x    15              3118080     100.0%      0.0%      0.0%
 flops    45 x    13 x    45              3369600     100.0%      0.0%      0.0%
 flops    45 x    32 x    13              3594240     100.0%      0.0%      0.0%
 flops    45 x    13 x    32              3594240     100.0%      0.0%      0.0%
 flops    13 x    32 x    45              3594240     100.0%      0.0%      0.0%
 flops    32 x    13 x    45              3594240     100.0%      0.0%      0.0%
 flops    43 x    15 x    32              3715200     100.0%      0.0%      0.0%
 flops    43 x    32 x    15              3715200     100.0%      0.0%      0.0%
 flops    15 x    32 x    43              3715200     100.0%      0.0%      0.0%
 flops    32 x    15 x    43              3715200     100.0%      0.0%      0.0%
 flops    44 x    15 x    32              3801600     100.0%      0.0%      0.0%
 flops    44 x    32 x    15              3801600     100.0%      0.0%      0.0%
 flops    15 x    32 x    44              3801600     100.0%      0.0%      0.0%
 flops    32 x    15 x    44              3801600     100.0%      0.0%      0.0%
 flops    45 x    15 x    45              3888000     100.0%      0.0%      0.0%
 flops    19 x    15 x    19              4245360     100.0%      0.0%      0.0%
 flops     8 x    15 x     2              4515840     100.0%      0.0%      0.0%
 flops     2 x    15 x     8              4515840     100.0%      0.0%      0.0%
 flops    19 x    13 x    19              4599140     100.0%      0.0%      0.0%
 flops     8 x    13 x     2              4892160     100.0%      0.0%      0.0%
 flops     2 x    13 x     8              4892160     100.0%      0.0%      0.0%
 flops    19 x    32 x    32              4902912     100.0%      0.0%      0.0%
 flops    45 x    32 x    15              5184000     100.0%      0.0%      0.0%
 flops    45 x    15 x    32              5184000     100.0%      0.0%      0.0%
 flops    15 x    32 x    45              5184000     100.0%      0.0%      0.0%
 flops    32 x    15 x    45              5184000     100.0%      0.0%      0.0%
 flops    19 x    15 x     8              7150080     100.0%      0.0%      0.0%
 flops     8 x    15 x    19              7150080     100.0%      0.0%      0.0%
 flops    19 x    13 x     8              7745920     100.0%      0.0%      0.0%
 flops     8 x    13 x    19              7745920     100.0%      0.0%      0.0%
 flops     8 x    32 x    32              8257536     100.0%      0.0%      0.0%
 flops     2 x     2 x    32              8322048     100.0%      0.0%      0.0%
 flops     8 x    15 x     8             12042240     100.0%      0.0%      0.0%
 flops    19 x     2 x    32             12870144     100.0%      0.0%      0.0%
 flops     2 x    19 x    32             12870144     100.0%      0.0%      0.0%
 flops     8 x    13 x     8             13045760     100.0%      0.0%      0.0%
 flops     8 x     2 x    32             21676032     100.0%      0.0%      0.0%
 flops     2 x     8 x    32             21676032     100.0%      0.0%      0.0%
 flops    19 x    19 x    32             23288832     100.0%      0.0%      0.0%
 flops    32 x    32 x    32             24772608     100.0%      0.0%      0.0%
 flops    19 x     8 x    32             34320384     100.0%      0.0%      0.0%
 flops     8 x    19 x    32             34320384     100.0%      0.0%      0.0%
 flops     2 x    32 x     2             36126720     100.0%      0.0%      0.0%
 flops    43 x    32 x    43             38340864     100.0%      0.0%      0.0%
 flops    43 x    32 x    44             39232512     100.0%      0.0%      0.0%
 flops    44 x    32 x    43             39232512     100.0%      0.0%      0.0%
 flops    44 x    32 x    44             40144896     100.0%      0.0%      0.0%
 flops    45 x    32 x    43             53498880     100.0%      0.0%      0.0%
 flops    43 x    32 x    45             53498880     100.0%      0.0%      0.0%
 flops    45 x    32 x    44             54743040     100.0%      0.0%      0.0%
 flops    44 x    32 x    45             54743040     100.0%      0.0%      0.0%
 flops    19 x    32 x     2             57200640     100.0%      0.0%      0.0%
 flops     2 x    32 x    19             57200640     100.0%      0.0%      0.0%
 flops     8 x     8 x    32             59867136     100.0%      0.0%      0.0%
 flops    32 x    32 x    43             64991232     100.0%      0.0%      0.0%
 flops    43 x    32 x    32             64991232     100.0%      0.0%      0.0%
 flops    32 x    32 x    44             66502656     100.0%      0.0%      0.0%
 flops    44 x    32 x    32             66502656     100.0%      0.0%      0.0%
 flops    45 x    32 x    45             74649600     100.0%      0.0%      0.0%
 flops    19 x    32 x    19             90567680     100.0%      0.0%      0.0%
 flops    32 x    32 x    45             90685440     100.0%      0.0%      0.0%
 flops    45 x    32 x    32             90685440     100.0%      0.0%      0.0%
 flops     8 x    32 x     2             96337920     100.0%      0.0%      0.0%
 flops     2 x    32 x     8             96337920     100.0%      0.0%      0.0%
 flops    19 x    32 x     8            152535040     100.0%      0.0%      0.0%
 flops     8 x    32 x    19            152535040     100.0%      0.0%      0.0%
 flops     8 x    32 x     8            256901120     100.0%      0.0%      0.0%
 flops inhomo. stacks                           0       0.0%      0.0%      0.0%
 flops total                         2.420285E+09     100.0%      0.0%      0.0%
 flops max/rank                     54.186528E+06     100.0%      0.0%      0.0%
 matmuls inhomo. stacks                         0       0.0%      0.0%      0.0%
 matmuls total                             727270     100.0%      0.0%      0.0%
 number of processed stacks                114314     100.0%      0.0%      0.0%
 average stack size                                     6.4       0.0       0.0
 marketing flops                     2.821669E+09
 -------------------------------------------------------------------------------
 # multiplications                             70
 max memory usage/rank               1.304732E+09
 # max total images/rank                        1
 # max 3D layers                                1
 # MPI messages exchanged                  126000
 MPI messages size (bytes):
  total size                       812.115968E+06
  min size                           0.000000E+00
  max size                          16.200000E+03
  average size                       6.445365E+03
 MPI breakdown and total messages size (bytes):
             size <=      128               56412                        0
       128 < size <=     8192               13068                 74135952
      8192 < size <=    32768               56520                737979984
     32768 < size <=   131072                   0                        0
    131072 < size <=  4194304                   0                        0
   4194304 < size <= 16777216                   0                        0
  16777216 < size                               0                        0
 -------------------------------------------------------------------------------

 MEMORY| Estimated peak process memory [MiB]                                1387

 -------------------------------------------------------------------------------
 -                                                                             -
 -                         MESSAGE PASSING PERFORMANCE                         -
 -                                                                             -
 -------------------------------------------------------------------------------

 ROUTINE             CALLS      AVE VOLUME [Bytes]
 MP_Group               51
 MP_Bcast              937                 590430.
 MP_Allreduce         1114                  12953.
 MP_Sync               220
 MP_Alltoall          1164                3852725.
 MP_ISendRecv        17622                  68333.
 MP_Wait             26182
 MP_comm_split           1
 MP_ISend             5300                 185549.
 MP_IRecv             5204                 187353.
 MP_Recv                36                  58212.
 MP_Memory            2668
 -------------------------------------------------------------------------------


 -------------------------------------------------------------------------------
 -                                                                             -
 -                           R E F E R E N C E S                               -
 -                                                                             -
 -------------------------------------------------------------------------------
 
 CP2K version 6.1, the CP2K developers group (2018).
 CP2K is freely available from https://www.cp2k.org/ .

 Schuett, Ole; Messmer, Peter; Hutter, Juerg; VandeVondele, Joost. 
 Electronic Structure Calculations on Graphics Processing Units, John Wiley & Sons, Ltd, 173-190 (2016). 
 GPU-Accelerated Sparse Matrix-Matrix Multiplication for Linear Scaling Density Functional Theory.
 http://dx.doi.org/10.1002/9781118670712.ch8


 Borstnik, U; VandeVondele, J; Weber, V; Hutter, J. 
 PARALLEL COMPUTING, 40 (5-6), 47-58 (2014). 
 Sparse matrix multiplication: The distributed block-compressed sparse
 row library.
 http://dx.doi.org/10.1016/j.parco.2014.03.012


 Hutter, J; Iannuzzi, M; Schiffmann, F; VandeVondele, J. 
 WILEY INTERDISCIPLINARY REVIEWS-COMPUTATIONAL MOLECULAR SCIENCE, 4 (1), 15-25 (2014). 
 CP2K: atomistic simulations of condensed matter systems.
 http://dx.doi.org/10.1002/wcms.1159


 Guidon, M; Hutter, J; VandeVondele, J. 
 JOURNAL OF CHEMICAL THEORY AND COMPUTATION, 5 (11), 3010-3021 (2009). 
 Robust Periodic Hartree-Fock Exchange for Large-Scale Simulations Using
 Gaussian Basis Sets.
 http://dx.doi.org/10.1021/ct900494g


 Guidon, M; Schiffmann, F; Hutter, J; VandeVondele, J. 
 JOURNAL OF CHEMICAL PHYSICS, 128 (21), 214104 (2008). 
 Ab initio molecular dynamics using hybrid density functionals.
 http://dx.doi.org/10.1063/1.2931945


 Krack, M. 
 THEORETICAL CHEMISTRY ACCOUNTS, 114 (1-3), 145-152 (2005). 
 Pseudopotentials for H to Kr optimized for gradient-corrected
 exchange-correlation functionals.
 http://dx.doi.org/10.1007/s00214-005-0655-y


 VandeVondele, J; Krack, M; Mohamed, F; Parrinello, M; Chassaing, T;
 Hutter, J. COMPUTER PHYSICS COMMUNICATIONS, 167 (2), 103-128 (2005). 
 QUICKSTEP: Fast and accurate density functional calculations using a
 mixed Gaussian and plane waves approach.
 http://dx.doi.org/10.1016/j.cpc.2004.12.014


 Frigo, M; Johnson, SG. 
 PROCEEDINGS OF THE IEEE, 93 (2), 216-231 (2005). 
 The design and implementation of FFTW3.
 http://dx.doi.org/10.1109/JPROC.2004.840301


 VandeVondele, J; Hutter, J. 
 JOURNAL OF CHEMICAL PHYSICS, 118 (10), 4365-4369 (2003). 
 An efficient orbital transformation method for electronic structure
 calculations.
 http://dx.doi.org/10.1063/1.1543154


 Hartwigsen, C; Goedecker, S; Hutter, J. 
 PHYSICAL REVIEW B, 58 (7), 3641-3662 (1998). 
 Relativistic separable dual-space Gaussian pseudopotentials from H to Rn.
 http://dx.doi.org/10.1103/PhysRevB.58.3641


 Dudarev, SL; Botton, GA; Savrasov, SY; Humphreys, CJ; Sutton, AP. 
 PHYSICAL REVIEW B, 57 (3), 1505-1509 (1998). 
 Electron-energy-loss spectra and the structural stability of
 nickel oxide: An LSDA+U study.
 http://dx.doi.org/10.1103/PhysRevB.57.1505


 Lippert, G; Hutter, J; Parrinello, M. 
 MOLECULAR PHYSICS, 92 (3), 477-487 (1997). 
 A hybrid Gaussian and plane wave density functional scheme.
 http://dx.doi.org/10.1080/002689797170220


 Dudarev, SL; Manh, DN; Sutton, AP. 
 PHILOSOPHICAL MAGAZINE B, 75 (5), 613-628 (1997). 
 Effect of Mott-Hubbard correlations on the electronic
 structure and structural stability of uranium dioxide.
 http://dx.doi.org/10.1080/13642819708202343


 Goedecker, S; Teter, M; Hutter, J. 
 PHYSICAL REVIEW B, 54 (3), 1703-1710 (1996). 
 Separable dual-space Gaussian pseudopotentials.
 http://dx.doi.org/10.1103/PhysRevB.54.1703


 BECKE, AD. PHYSICAL REVIEW A, 38 (6), 3098-3100 (1988). 
 DENSITY-FUNCTIONAL EXCHANGE-ENERGY APPROXIMATION WITH CORRECT
 ASYMPTOTIC-BEHAVIOR.
 http://dx.doi.org/10.1103/PhysRevA.38.3098


 LEE, CT; YANG, WT; PARR, RG. 
 PHYSICAL REVIEW B, 37 (2), 785-789 (1988). 
 DEVELOPMENT OF THE COLLE-SALVETTI CORRELATION-ENERGY FORMULA INTO A
 FUNCTIONAL OF THE ELECTRON-DENSITY.
 http://dx.doi.org/10.1103/PhysRevB.37.785


 -------------------------------------------------------------------------------
 -                                                                             -
 -                                T I M I N G                                  -
 -                                                                             -
 -------------------------------------------------------------------------------
 SUBROUTINE                       CALLS  ASD         SELF TIME        TOTAL TIME
                                MAXIMUM       AVERAGE  MAXIMUM  AVERAGE  MAXIMUM
 CP2K                                 1  1.0    1.301    2.005  119.888  119.889
 qs_ks_update_qs_env                  8  3.5    0.000    0.000   95.099   95.398
 rebuild_ks_matrix                    6  4.0    0.000    0.000   95.094   95.393
 qs_ks_build_kohn_sham_matrix         6  5.0    0.840    1.138   95.094   95.393
 hfx_ks_matrix                        4  5.0    0.307    0.491   78.284   78.284
 integrate_four_center                4  6.0    0.017    0.600   77.976   78.242
 integrate_four_center_main           4  7.0    0.001    0.001   70.924   75.569
 integrate_four_center_bin          256  8.0   70.923   75.568   70.923   75.568
 qs_energies                          2  2.0    0.000    0.000   27.251   27.492
 pw_transfer                        276  7.6    0.016    0.020   22.642   22.978
 fft_wrap_pw1pw2                    248  8.7    0.002    0.003   22.182   22.516
 fft_wrap_pw1pw2_330                 68 10.4    1.379    1.458   20.665   20.980
 scf_env_do_scf                       2  3.0    0.000    0.002   20.267   20.267
 fft3d_ps                           248 10.7    7.505    8.655   18.277   18.712
 qs_rho_update_rho                    8  3.5    0.000    0.000   18.101   18.107
 calculate_rho_elec                  16  4.5    0.298    0.754   18.101   18.107
 density_rs2pw                       16  5.5    0.002    0.002   16.574   16.960
 init_scf_loop                        2  4.0    0.000    0.000   15.637   15.637
 mp_sync                            220 11.1    4.996   10.180    4.996   10.180
 qs_vxc_create                        6  6.0    0.000    0.000   10.001   10.045
 xc_vxc_pw_create                     2  9.0    0.176    0.225   10.001   10.045
 mp_alltoall_z22v                   248 12.7    8.988    9.442    8.988    9.442
 rs_pw_transfer                     208  7.4    0.003    0.004    8.350    8.736
 yz_to_x                             66 11.4    0.597    0.689    5.282    5.674
 x_to_yz                             42 13.0    1.036    1.169    5.331    5.398
 scf_env_do_scf_inner_loop            2  4.0    0.000    0.000    4.592    4.623
 xc_rho_set_and_dset_create           2 10.0    0.160    0.191    4.559    4.607
 init_scf_run                         2  3.0    0.000    0.000    4.565    4.565
 scf_env_initial_rho_setup            2  4.0    0.000    0.000    4.565    4.565
 rs_pw_transfer_RS2PW_330            20  7.5    1.642    1.956    3.134    3.569
 sum_up_and_integrate                 2  8.0    0.029    0.039    3.491    3.491
 integrate_v_rspace                   4  9.0    0.044    0.096    3.462    3.467
 potential_pw2rs                      4 10.0    0.002    0.004    3.357    3.365
 mp_waitany                        1488  9.3    2.448    2.961    2.448    2.961
 -------------------------------------------------------------------------------

 The number of warnings for this run is : 4
 
 -------------------------------------------------------------------------------
  **** **** ******  **  PROGRAM ENDED AT                 2019-08-06 16:50:33.546
 ***** ** ***  *** **   PROGRAM RAN ON            cpn-p28-18.cbls.ccr.buffalo.ed
 **    ****   ******    PROGRAM RAN BY                                  pavankum
 ***** **    ** ** **   PROGRAM PROCESS ID                                128835
  **** **  *******  **  PROGRAM STOPPED IN /projects/academic/mdupuis2/pavan/VAB
                                           _calculation/results_for_paper/3.1D_F
                                           e_7units/blyp_plusU7/mixed
