 DBCSR| Multiplication driver                                               BLAS
 DBCSR| Multrec recursion limit                                              512
 DBCSR| Multiplication stack size                                           1000
 DBCSR| Maximum elements for images                                    UNLIMITED
 DBCSR| Multiplicative factor virtual images                                   1
 DBCSR| Multiplication size stacks                                             3
 DBCSR| Number of 3D layers                                               SINGLE
 DBCSR| Use MPI memory allocation                                              T
 DBCSR| Use RMA algorithm                                                      F
 DBCSR| Use Communication thread                                               T
 DBCSR| Communication thread load                                             87


  **** **** ******  **  PROGRAM STARTED AT               2020-01-29 14:37:28.361
 ***** ** ***  *** **   PROGRAM STARTED ON        cpn-p28-42.cbls.ccr.buffalo.ed
 **    ****   ******    PROGRAM STARTED BY                              pavankum
 ***** **    ** ** **   PROGRAM PROCESS ID                                 23003
  **** **  *******  **  PROGRAM STARTED IN /projects/academic/mdupuis2/pavan/MOA
                                           /water-dimer/cp2k-cube-test

 CP2K| version string:                                          CP2K version 6.1
 CP2K| source code revision number:                                    svn:18464
 CP2K| cp2kflags: libint fftw3 libxc parallel mpi3 scalapack libderiv_max_am1=5 
 CP2K|            libint_max_am=6
 CP2K| is freely available from                            https://www.cp2k.org/
 CP2K| Program compiled at                          Fri Nov 30 14:17:09 EST 2018
 CP2K| Program compiled on                       srv-p22-12.cbls.ccr.buffalo.edu
 CP2K| Program compiled for                                                local
 CP2K| Data directory path    /projects/academic/mdupuis2/pavan/cp2k/cp2k-6.1/da
 CP2K| Input file name                                                 input.inp

 GLOBAL| Force Environment number                                              1
 GLOBAL| Basis set file name                                       ./water.basis
 GLOBAL| Potential file name                                   ./water.potential
 GLOBAL| MM Potential file name                                     MM_POTENTIAL
 GLOBAL| Coordinate file name                                     ./geometry.xyz
 GLOBAL| Method name                                                        CP2K
 GLOBAL| Project name                                                         p_
 GLOBAL| Preferred FFT library                                             FFTW3
 GLOBAL| Preferred diagonalization lib.                                       SL
 GLOBAL| Run type                                                         ENERGY
 GLOBAL| All-to-all communication in single precision                          F
 GLOBAL| FFTs using library dependent lengths                                  T
 GLOBAL| Global print level                                               MEDIUM
 GLOBAL| Total number of message passing processes                            16
 GLOBAL| Number of threads for this process                                    1
 GLOBAL| This output is from process                                           0
 GLOBAL| CPU model name :  Intel(R) Xeon(R) CPU E5-2650 v3 @ 2.30GHz

 MEMORY| system memory details [Kb]
 MEMORY|                        rank 0           min           max       average
 MEMORY| MemTotal            131766864     131766864     131766864     131766864
 MEMORY| MemFree             120830004     120830004     120830004     120830004
 MEMORY| Buffers                398040        398040        398040        398040
 MEMORY| Cached                7309412       7309412       7309412       7309412
 MEMORY| Slab                   313060        313060        313060        313060
 MEMORY| SReclaimable           218296        218296        218296        218296
 MEMORY| MemLikelyFree       128755752     128755752     128755752     128755752


 *** Fundamental physical constants (SI units) ***

 *** Literature: B. J. Mohr and B. N. Taylor,
 ***             CODATA recommended values of the fundamental physical
 ***             constants: 2006, Web Version 5.1
 ***             http://physics.nist.gov/constants

 Speed of light in vacuum [m/s]                             2.99792458000000E+08
 Magnetic constant or permeability of vacuum [N/A**2]       1.25663706143592E-06
 Electric constant or permittivity of vacuum [F/m]          8.85418781762039E-12
 Planck constant (h) [J*s]                                  6.62606896000000E-34
 Planck constant (h-bar) [J*s]                              1.05457162825177E-34
 Elementary charge [C]                                      1.60217648700000E-19
 Electron mass [kg]                                         9.10938215000000E-31
 Electron g factor [ ]                                     -2.00231930436220E+00
 Proton mass [kg]                                           1.67262163700000E-27
 Fine-structure constant                                    7.29735253760000E-03
 Rydberg constant [1/m]                                     1.09737315685270E+07
 Avogadro constant [1/mol]                                  6.02214179000000E+23
 Boltzmann constant [J/K]                                   1.38065040000000E-23
 Atomic mass unit [kg]                                      1.66053878200000E-27
 Bohr radius [m]                                            5.29177208590000E-11

 *** Conversion factors ***

 [u] -> [a.u.]                                              1.82288848426455E+03
 [Angstrom] -> [Bohr] = [a.u.]                              1.88972613288564E+00
 [a.u.] = [Bohr] -> [Angstrom]                              5.29177208590000E-01
 [a.u.] -> [s]                                              2.41888432650478E-17
 [a.u.] -> [fs]                                             2.41888432650478E-02
 [a.u.] -> [J]                                              4.35974393937059E-18
 [a.u.] -> [N]                                              8.23872205491840E-08
 [a.u.] -> [K]                                              3.15774647902944E+05
 [a.u.] -> [kJ/mol]                                         2.62549961709828E+03
 [a.u.] -> [kcal/mol]                                       6.27509468713739E+02
 [a.u.] -> [Pa]                                             2.94210107994716E+13
 [a.u.] -> [bar]                                            2.94210107994716E+08
 [a.u.] -> [atm]                                            2.90362800883016E+08
 [a.u.] -> [eV]                                             2.72113838565563E+01
 [a.u.] -> [Hz]                                             6.57968392072181E+15
 [a.u.] -> [1/cm] (wave numbers)                            2.19474631370540E+05
 [a.u./Bohr**2] -> [1/cm]                                   5.14048714338585E+03
 

 CELL_TOP| Volume [angstrom^3]:                                         3375.000
 CELL_TOP| Vector a [angstrom    15.000     0.000     0.000    |a| =      15.000
 CELL_TOP| Vector b [angstrom     0.000    15.000     0.000    |b| =      15.000
 CELL_TOP| Vector c [angstrom     0.000     0.000    15.000    |c| =      15.000
 CELL_TOP| Angle (b,c), alpha [degree]:                                   90.000
 CELL_TOP| Angle (a,c), beta  [degree]:                                   90.000
 CELL_TOP| Angle (a,b), gamma [degree]:                                   90.000
 CELL_TOP| Numerically orthorhombic:                                         YES

 CELL| Volume [angstrom^3]:                                             3375.000
 CELL| Vector a [angstrom]:      15.000     0.000     0.000    |a| =      15.000
 CELL| Vector b [angstrom]:       0.000    15.000     0.000    |b| =      15.000
 CELL| Vector c [angstrom]:       0.000     0.000    15.000    |c| =      15.000
 CELL| Angle (b,c), alpha [degree]:                                       90.000
 CELL| Angle (a,c), beta  [degree]:                                       90.000
 CELL| Angle (a,b), gamma [degree]:                                       90.000
 CELL| Numerically orthorhombic:                                             YES

 CELL_REF| Volume [angstrom^3]:                                         3375.000
 CELL_REF| Vector a [angstrom    15.000     0.000     0.000    |a| =      15.000
 CELL_REF| Vector b [angstrom     0.000    15.000     0.000    |b| =      15.000
 CELL_REF| Vector c [angstrom     0.000     0.000    15.000    |c| =      15.000
 CELL_REF| Angle (b,c), alpha [degree]:                                   90.000
 CELL_REF| Angle (a,c), beta  [degree]:                                   90.000
 CELL_REF| Angle (a,b), gamma [degree]:                                   90.000
 CELL_REF| Numerically orthorhombic:                                         YES

 *******************************************************************************
 *******************************************************************************
 **                                                                           **
 **     #####                         ##              ##                      **
 **    ##   ##            ##          ##              ##                      **
 **   ##     ##                       ##            ######                    **
 **   ##     ##  ##   ##  ##   #####  ##  ##   ####   ##    #####    #####    **
 **   ##     ##  ##   ##  ##  ##      ## ##   ##      ##   ##   ##  ##   ##   **
 **   ##  ## ##  ##   ##  ##  ##      ####     ###    ##   ######   ######    **
 **    ##  ###   ##   ##  ##  ##      ## ##      ##   ##   ##       ##        **
 **     #######   #####   ##   #####  ##  ##  ####    ##    #####   ##        **
 **           ##                                                    ##        **
 **                                                                           **
 **                                                ... make the atoms dance   **
 **                                                                           **
 **            Copyright (C) by CP2K developers group (2000 - 2018)           **
 **                                                                           **
 *******************************************************************************

 DFT| Spin restricted Kohn-Sham (RKS) calculation                            RKS
 DFT| Multiplicity                                                             1
 DFT| Number of spin states                                                    1
 DFT| Charge                                                                   0
 DFT| Self-interaction correction (SIC)                                       NO
 DFT| Cutoffs: density                                              1.000000E-10
 DFT|          gradient                                             1.000000E-10
 DFT|          tau                                                  1.000000E-10
 DFT|          cutoff_smoothing_range                               0.000000E+00
 DFT| XC density smoothing                                                  NONE
 DFT| XC derivatives                                                          PW
 FUNCTIONAL| NO EXCHANGE-CORRELATION FUNCTIONAL USED.

 QS| Method:                                                                GAPW
 QS| Density plane wave grid type                        NON-SPHERICAL FULLSPACE
 QS| Number of grid levels:                                                   10
 QS| Density cutoff [a.u.]:                                                300.0
 QS| Multi grid cutoff [a.u.]: 1) grid level                               300.0
 QS|                           2) grid level                               100.0
 QS|                           3) grid level                                33.3
 QS|                           4) grid level                                11.1
 QS|                           5) grid level                                 3.7
 QS|                           6) grid level                                 1.2
 QS|                           7) grid level                                 0.4
 QS|                           8) grid level                                 0.1
 QS|                           9) grid level                                 0.0
 QS|                          10) grid level                                 0.0
 QS| Grid level progression factor:                                          3.0
 QS| Relative density cutoff [a.u.]:                                        30.0
 QS| Consistent realspace mapping and integration 
 QS| Interaction thresholds: eps_pgf_orb:                                1.0E-10
 QS|                         eps_filter_matrix:                          0.0E+00
 QS|                         eps_core_charge:                            1.0E-12
 QS|                         eps_rho_gspace:                             1.0E-10
 QS|                         eps_rho_rspace:                             1.0E-10
 QS|                         eps_gvg_rspace:                             1.0E-05
 QS|                         eps_ppl:                                    1.0E-02
 QS|                         eps_ppnl:                                   1.0E-07
 QS| GAPW|                   eps_fit:                                    1.0E-04
 QS| GAPW|                   eps_iso:                                    1.0E-12
 QS| GAPW|                   eps_svd:                                    1.0E-08
 QS| GAPW|                   eps_cpc:                                    1.0E-10
 QS| GAPW|   atom-r-grid: quadrature:                 GC_LOG                        
 QS| GAPW|      atom-s-grid:  max l :                                          4
 QS| GAPW|      max_l_rho0 :                                                   2


 ATOMIC KIND INFORMATION

  1. Atomic kind: O                                     Number of atoms:       2

     Orbital Basis Set                                                   6-31G**

       Number of orbital shell sets:                                           4
       Number of orbital shells:                                               6
       Number of primitive Cartesian functions:                               11
       Number of Cartesian basis functions:                                   15
       Number of spherical basis functions:                                   14
       Norm type:                                                              2

       Normalised Cartesian orbitals:

                        Set   Shell   Orbital            Exponent    Coefficient

                          1       1    1s             5484.671660       0.831724
                                                       825.234946       1.530816
                                                       188.046958       2.477149
                                                        52.964500       3.256281
                                                        16.897570       2.792893
                                                         5.799635       0.954938

                          2       1    2s               15.539616      -0.617934
                                                         3.599934      -0.275721
                                                         1.013762       0.814208

                          2       2    3px              15.539616       3.116944
                                                         3.599934       2.401438
                                                         1.013762       1.054360
                          2       2    3py              15.539616       3.116944
                                                         3.599934       2.401438
                                                         1.013762       1.054360
                          2       2    3pz              15.539616       3.116944
                                                         3.599934       2.401438
                                                         1.013762       1.054360

                          3       1    3s                0.270006       0.266956

                          3       2    4px               0.270006       0.277432
                          3       2    4py               0.270006       0.277432
                          3       2    4pz               0.270006       0.277432

                          4       1    3dx2              0.800000       1.113825
                          4       1    3dxy              0.800000       1.929201
                          4       1    3dxz              0.800000       1.929201
                          4       1    3dy2              0.800000       1.113825
                          4       1    3dyz              0.800000       1.929201
                          4       1    3dz2              0.800000       1.113825

     The atoms of this atomic kind are PAW atoms (GAPW):
       Hard Gaussian function radius:                                      1.512
       Rho0 radius:                                                        1.512
       Maximum GTO radius used for PAW projector construction:            24.566

     GAPW Soft Basis Set                                            6-31G**_soft

       Number of orbital shell sets:                                           4
       Number of orbital shells:                                               6
       Number of primitive Cartesian functions:                                4
       Number of Cartesian basis functions:                                   15
       Number of spherical basis functions:                                   14
       Norm type:                                                              2

       Normalised Cartesian orbitals:

                        Set   Shell   Orbital            Exponent    Coefficient

                          1       1    1s         

                          2       1    2s                3.599934      -0.275721
                                                         1.013762       0.814208

                          2       2    3px               3.599934       2.401438
                                                         1.013762       1.054360
                          2       2    3py               3.599934       2.401438
                                                         1.013762       1.054360
                          2       2    3pz               3.599934       2.401438
                                                         1.013762       1.054360

                          3       1    3s                0.270006       0.266956

                          3       2    4px               0.270006       0.277432
                          3       2    4py               0.270006       0.277432
                          3       2    4pz               0.270006       0.277432

                          4       1    3dx2              0.800000       1.113825
                          4       1    3dxy              0.800000       1.929201
                          4       1    3dxz              0.800000       1.929201
                          4       1    3dy2              0.800000       1.113825
                          4       1    3dyz              0.800000       1.929201
                          4       1    3dz2              0.800000       1.113825

     AE Potential information for                                            ALL

       Description:                                       All-electron potential
                                          Krack, Parrinello, PCCP 2, 2105 (2000)

       Gaussian exponent of the core charge distribution:               8.154466
       Electronic configuration (s p d ...):                           4   4   0

  2. Atomic kind: H                                     Number of atoms:       4

     Orbital Basis Set                                                   6-31G**

       Number of orbital shell sets:                                           3
       Number of orbital shells:                                               3
       Number of primitive Cartesian functions:                                5
       Number of Cartesian basis functions:                                    5
       Number of spherical basis functions:                                    5
       Norm type:                                                              2

       Normalised Cartesian orbitals:

                        Set   Shell   Orbital            Exponent    Coefficient

                          1       1    1s               18.731137       0.214935
                                                         2.825394       0.364571
                                                         0.640122       0.415051

                          2       1    1s                0.161278       0.181381

                          3       1    1px               1.100000       1.605761
                          3       1    1py               1.100000       1.605761
                          3       1    1pz               1.100000       1.605761

     The atoms of this atomic kind are PAW atoms (GAPW):
       Hard Gaussian function radius:                                      1.200
       Rho0 radius:                                                        1.200
       Maximum GTO radius used for PAW projector construction:            24.566

     GAPW Soft Basis Set                                            6-31G**_soft

       Number of orbital shell sets:                                           3
       Number of orbital shells:                                               3
       Number of primitive Cartesian functions:                                4
       Number of Cartesian basis functions:                                    5
       Number of spherical basis functions:                                    5
       Norm type:                                                              2

       Normalised Cartesian orbitals:

                        Set   Shell   Orbital            Exponent    Coefficient

                          1       1    1s                2.825394       0.364571
                                                         0.640122       0.415051

                          2       1    1s                0.161278       0.181381

                          3       1    1px               1.100000       1.605761
                          3       1    1py               1.100000       1.605761
                          3       1    1pz               1.100000       1.605761

     AE Potential information for                                            ALL

       Description:                                       All-electron potential
                                          Krack, Parrinello, PCCP 2, 2105 (2000)

       Gaussian exponent of the core charge distribution:              12.500000
       Electronic configuration (s p d ...):                           1   0   0


 MOLECULE KIND INFORMATION


 All atoms are their own molecule, skipping detailed information


 TOTAL NUMBERS AND MAXIMUM NUMBERS

  Total number of            - Atomic kinds:                                   2
                             - Atoms:                                          6
                             - Shell sets:                                    20
                             - Shells:                                        24
                             - Primitive Cartesian functions:                 42
                             - Cartesian basis functions:                     50
                             - Spherical basis functions:                     48

  Maximum angular momentum of the orbital basis functions:                     2


 MODULE QUICKSTEP:  ATOMIC COORDINATES IN angstrom

  Atom  Kind  Element       X           Y           Z          Z(eff)       Mass

       1     1 O    8    6.048548    7.500000    7.364043      8.00      15.9994
       2     2 H    1    6.995636    7.500000    7.390269      1.00       1.0079
       3     2 H    1    5.769631    7.500000    8.264225      1.00       1.0079
       4     1 O    8    9.005849    7.500000    7.254140      8.00      15.9994
       5     2 H    1    9.230369    8.256063    6.735775      1.00       1.0079
       6     2 H    1    9.230369    6.743937    6.735775      1.00       1.0079




 SCF PARAMETERS         Density guess:                                    ATOMIC
                        --------------------------------------------------------
                        max_scf:                                              50
                        max_scf_history:                                       0
                        max_diis:                                              4
                        --------------------------------------------------------
                        eps_scf:                                        1.00E-07
                        eps_scf_history:                                0.00E+00
                        eps_diis:                                       1.00E-01
                        eps_eigval:                                     1.00E-05
                        --------------------------------------------------------
                        level_shift [a.u.]:                                 0.00
                        --------------------------------------------------------
                        Mixing method:                           DIRECT_P_MIXING
                        --------------------------------------------------------
                        Outer loop SCF in use 
                        No variables optimised in outer loop
                        eps_scf                                         1.00E-07
                        max_scf                                                1
                        No outer loop optimization
                        step_size                                       5.00E-01

 PW_GRID| Information for grid number                                          1
 PW_GRID| Grid distributed over                                    16 processors
 PW_GRID| Real space group dimensions                                    16    1
 PW_GRID| the grid is blocked:                                                NO
 PW_GRID| Cutoff [a.u.]                                                    300.0
 PW_GRID| spherical cutoff:                                                   NO
 PW_GRID|   Bounds   1           -112     111                Points:         224
 PW_GRID|   Bounds   2           -112     111                Points:         224
 PW_GRID|   Bounds   3           -112     111                Points:         224
 PW_GRID| Volume element (a.u.^3)  0.2026E-02     Volume (a.u.^3)     22775.6292
 PW_GRID| Grid span                                                    FULLSPACE
 PW_GRID|   Distribution                         Average         Max         Min
 PW_GRID|   G-Vectors                           702464.0      702464      702464
 PW_GRID|   G-Rays                                3136.0        3136        3136
 PW_GRID|   Real Space Points                   702464.0      702464      702464

 PW_GRID| Information for grid number                                          2
 PW_GRID| Grid distributed over                                    16 processors
 PW_GRID| Real space group dimensions                                    16    1
 PW_GRID| the grid is blocked:                                                NO
 PW_GRID| Cutoff [a.u.]                                                    100.0
 PW_GRID| spherical cutoff:                                                   NO
 PW_GRID|   Bounds   1            -64      63                Points:         128
 PW_GRID|   Bounds   2            -64      63                Points:         128
 PW_GRID|   Bounds   3            -64      63                Points:         128
 PW_GRID| Volume element (a.u.^3)  0.1086E-01     Volume (a.u.^3)     22775.6292
 PW_GRID| Grid span                                                    FULLSPACE
 PW_GRID|   Distribution                         Average         Max         Min
 PW_GRID|   G-Vectors                           131072.0      131200      130944
 PW_GRID|   G-Rays                                1024.0        1025        1023
 PW_GRID|   Real Space Points                   131072.0      131072      131072

 PW_GRID| Information for grid number                                          3
 PW_GRID| Grid distributed over                                    16 processors
 PW_GRID| Real space group dimensions                                    16    1
 PW_GRID| the grid is blocked:                                                NO
 PW_GRID| Cutoff [a.u.]                                                     33.3
 PW_GRID| spherical cutoff:                                                   NO
 PW_GRID|   Bounds   1            -37      37                Points:          75
 PW_GRID|   Bounds   2            -37      37                Points:          75
 PW_GRID|   Bounds   3            -37      37                Points:          75
 PW_GRID| Volume element (a.u.^3)  0.5399E-01     Volume (a.u.^3)     22775.6292
 PW_GRID| Grid span                                                    FULLSPACE
 PW_GRID|   Distribution                         Average         Max         Min
 PW_GRID|   G-Vectors                            26367.2       26475       26325
 PW_GRID|   G-Rays                                 351.6         353         351
 PW_GRID|   Real Space Points                    26367.2       28125       22500

 PW_GRID| Information for grid number                                          4
 PW_GRID| Grid distributed over                                    16 processors
 PW_GRID| Real space group dimensions                                    16    1
 PW_GRID| the grid is blocked:                                                NO
 PW_GRID| Cutoff [a.u.]                                                     11.1
 PW_GRID| spherical cutoff:                                                   NO
 PW_GRID|   Bounds   1            -22      21                Points:          44
 PW_GRID|   Bounds   2            -22      21                Points:          44
 PW_GRID|   Bounds   3            -22      21                Points:          44
 PW_GRID| Volume element (a.u.^3)  0.2674         Volume (a.u.^3)     22775.6292
 PW_GRID| Grid span                                                    FULLSPACE
 PW_GRID|   Distribution                         Average         Max         Min
 PW_GRID|   G-Vectors                             5324.0        5368        5280
 PW_GRID|   G-Rays                                 121.0         122         120
 PW_GRID|   Real Space Points                     5324.0        5808        3872

 PW_GRID| Information for grid number                                          5
 PW_GRID| Grid distributed over                                    16 processors
 PW_GRID| Real space group dimensions                                    16    1
 PW_GRID| the grid is blocked:                                                NO
 PW_GRID| Cutoff [a.u.]                                                      3.7
 PW_GRID| spherical cutoff:                                                   NO
 PW_GRID|   Bounds   1            -12      12                Points:          25
 PW_GRID|   Bounds   2            -12      12                Points:          25
 PW_GRID|   Bounds   3            -12      12                Points:          25
 PW_GRID| Volume element (a.u.^3)   1.458         Volume (a.u.^3)     22775.6292
 PW_GRID| Grid span                                                    FULLSPACE
 PW_GRID|   Distribution                         Average         Max         Min
 PW_GRID|   G-Vectors                              976.6        1050         950
 PW_GRID|   G-Rays                                  39.1          42          38
 PW_GRID|   Real Space Points                      976.6        1250         625

 PW_GRID| Information for grid number                                          6
 PW_GRID| Grid distributed over                                    16 processors
 PW_GRID| Real space group dimensions                                     4    4
 PW_GRID| the grid is blocked:                                                NO
 PW_GRID| Cutoff [a.u.]                                                      1.2
 PW_GRID| spherical cutoff:                                                   NO
 PW_GRID|   Bounds   1             -7       7                Points:          15
 PW_GRID|   Bounds   2             -7       7                Points:          15
 PW_GRID|   Bounds   3             -7       7                Points:          15
 PW_GRID| Volume element (a.u.^3)   6.748         Volume (a.u.^3)     22775.6292
 PW_GRID| Grid span                                                    FULLSPACE
 PW_GRID|   Distribution                         Average         Max         Min
 PW_GRID|   G-Vectors                              210.9         285         150
 PW_GRID|   G-Rays                                  14.1          19          10
 PW_GRID|   Real Space Points                      210.9         240         135

 PW_GRID| Information for grid number                                          7
 PW_GRID| Grid distributed over                                    16 processors
 PW_GRID| Real space group dimensions                                     4    4
 PW_GRID| the grid is blocked:                                                NO
 PW_GRID| Cutoff [a.u.]                                                      0.4
 PW_GRID| spherical cutoff:                                                   NO
 PW_GRID|   Bounds   1             -4       4                Points:           9
 PW_GRID|   Bounds   2             -4       4                Points:           9
 PW_GRID|   Bounds   3             -4       4                Points:           9
 PW_GRID| Volume element (a.u.^3)   31.24         Volume (a.u.^3)     22775.6292
 PW_GRID| Grid span                                                    FULLSPACE
 PW_GRID|   Distribution                         Average         Max         Min
 PW_GRID|   G-Vectors                               45.6          63          36
 PW_GRID|   G-Rays                                   5.1           7           4
 PW_GRID|   Real Space Points                       45.6          81          36

 PW_GRID| Information for grid number                                          8
 PW_GRID| Grid distributed over                                    16 processors
 PW_GRID| Real space group dimensions                                     4    4
 PW_GRID| the grid is blocked:                                                NO
 PW_GRID| Cutoff [a.u.]                                                      0.1
 PW_GRID| spherical cutoff:                                                   NO
 PW_GRID|   Bounds   1             -2       2                Points:           5
 PW_GRID|   Bounds   2             -2       2                Points:           5
 PW_GRID|   Bounds   3             -2       2                Points:           5
 PW_GRID| Volume element (a.u.^3)   182.2         Volume (a.u.^3)     22775.6292
 PW_GRID| Grid span                                                    FULLSPACE
 PW_GRID|   Distribution                         Average         Max         Min
 PW_GRID|   G-Vectors                                7.8          20           0
 PW_GRID|   G-Rays                                   1.6           4           0
 PW_GRID|   Real Space Points                        7.8          20           5

 PW_GRID| Information for grid number                                          9
 PW_GRID| Grid distributed over                                    16 processors
 PW_GRID| Real space group dimensions                                     4    4
 PW_GRID| the grid is blocked:                                                NO
 PW_GRID| Cutoff [a.u.]                                                      0.0
 PW_GRID| spherical cutoff:                                                   NO
 PW_GRID|   Bounds   1             -1       1                Points:           3
 PW_GRID|   Bounds   2             -1       1                Points:           3
 PW_GRID|   Bounds   3             -1       1                Points:           3
 PW_GRID| Volume element (a.u.^3)   843.5         Volume (a.u.^3)     22775.6292
 PW_GRID| Grid span                                                    FULLSPACE
 PW_GRID|   Distribution                         Average         Max         Min
 PW_GRID|   G-Vectors                                1.7           6           0
 PW_GRID|   G-Rays                                   0.6           2           0
 PW_GRID|   Real Space Points                        1.7           3           0

 PW_GRID| Information for grid number                                         10
 PW_GRID| Grid distributed over                                    16 processors
 PW_GRID| Real space group dimensions                                     4    4
 PW_GRID| the grid is blocked:                                                NO
 PW_GRID| Cutoff [a.u.]                                                      0.0
 PW_GRID| spherical cutoff:                                                   NO
 PW_GRID|   Bounds   1              0       0                Points:           1
 PW_GRID|   Bounds   2              0       0                Points:           1
 PW_GRID|   Bounds   3              0       0                Points:           1
 PW_GRID| Volume element (a.u.^3)  0.2278E+05     Volume (a.u.^3)     22775.6292
 PW_GRID| Grid span                                                    FULLSPACE
 PW_GRID|   Distribution                         Average         Max         Min
 PW_GRID|   G-Vectors                                0.1           1           0
 PW_GRID|   G-Rays                                   0.1           1           0
 PW_GRID|   Real Space Points                        0.1           1           0

 POISSON| Solver                                                         WAVELET
 POISSON| Wavelet| Scaling function                                           40
 POISSON| Periodicity                                                       NONE

 RS_GRID| Information for grid number                                          1
 RS_GRID|   Bounds   1           -112     111                Points:         224
 RS_GRID|   Bounds   2           -112     111                Points:         224
 RS_GRID|   Bounds   3           -112     111                Points:         224
 RS_GRID| Real space distribution over                                  4 groups
 RS_GRID| Real space distribution along direction                              2
 RS_GRID| Border size                                                         23
 RS_GRID| Real space distribution over                                  4 groups
 RS_GRID| Real space distribution along direction                              3
 RS_GRID| Border size                                                         23
 RS_GRID|   Distribution                         Average         Max         Min
 RS_GRID|   Planes                                 102.0         102         102
 RS_GRID|   Distribution                         Average         Max         Min
 RS_GRID|   Planes                                 102.0         102         102

 RS_GRID| Information for grid number                                          2
 RS_GRID|   Bounds   1            -64      63                Points:         128
 RS_GRID|   Bounds   2            -64      63                Points:         128
 RS_GRID|   Bounds   3            -64      63                Points:         128
 RS_GRID| Real space distribution over                                  4 groups
 RS_GRID| Real space distribution along direction                              2
 RS_GRID| Border size                                                         23
 RS_GRID| Real space distribution over                                  4 groups
 RS_GRID| Real space distribution along direction                              3
 RS_GRID| Border size                                                         23
 RS_GRID|   Distribution                         Average         Max         Min
 RS_GRID|   Planes                                  78.0          78          78
 RS_GRID|   Distribution                         Average         Max         Min
 RS_GRID|   Planes                                  78.0          78          78

 RS_GRID| Information for grid number                                          3
 RS_GRID|   Bounds   1            -37      37                Points:          75
 RS_GRID|   Bounds   2            -37      37                Points:          75
 RS_GRID|   Bounds   3            -37      37                Points:          75
 RS_GRID| Real space fully replicated
 RS_GRID| Group size                                                           1

 RS_GRID| Information for grid number                                          4
 RS_GRID|   Bounds   1            -22      21                Points:          44
 RS_GRID|   Bounds   2            -22      21                Points:          44
 RS_GRID|   Bounds   3            -22      21                Points:          44
 RS_GRID| Real space fully replicated
 RS_GRID| Group size                                                           1

 RS_GRID| Information for grid number                                          5
 RS_GRID|   Bounds   1            -12      12                Points:          25
 RS_GRID|   Bounds   2            -12      12                Points:          25
 RS_GRID|   Bounds   3            -12      12                Points:          25
 RS_GRID| Real space fully replicated
 RS_GRID| Group size                                                           1

 RS_GRID| Information for grid number                                          6
 RS_GRID|   Bounds   1             -7       7                Points:          15
 RS_GRID|   Bounds   2             -7       7                Points:          15
 RS_GRID|   Bounds   3             -7       7                Points:          15
 RS_GRID| Real space fully replicated
 RS_GRID| Group size                                                           1

 RS_GRID| Information for grid number                                          7
 RS_GRID|   Bounds   1             -4       4                Points:           9
 RS_GRID|   Bounds   2             -4       4                Points:           9
 RS_GRID|   Bounds   3             -4       4                Points:           9
 RS_GRID| Real space fully replicated
 RS_GRID| Group size                                                           1

 RS_GRID| Information for grid number                                          8
 RS_GRID|   Bounds   1             -2       2                Points:           5
 RS_GRID|   Bounds   2             -2       2                Points:           5
 RS_GRID|   Bounds   3             -2       2                Points:           5
 RS_GRID| Real space fully replicated
 RS_GRID| Group size                                                           1

 RS_GRID| Information for grid number                                          9
 RS_GRID|   Bounds   1             -1       1                Points:           3
 RS_GRID|   Bounds   2             -1       1                Points:           3
 RS_GRID|   Bounds   3             -1       1                Points:           3
 RS_GRID| Real space fully replicated
 RS_GRID| Group size                                                           1

 RS_GRID| Information for grid number                                         10
 RS_GRID|   Bounds   1              0       0                Points:           1
 RS_GRID|   Bounds   2              0       0                Points:           1
 RS_GRID|   Bounds   3              0       0                Points:           1
 RS_GRID| Real space fully replicated
 RS_GRID| Group size                                                           1

  HFX_INFO| Replica ID:                                                        1
  HFX_INFO| EPS_SCHWARZ:                                                 1.0E-10
  HFX_INFO| EPS_SCHWARZ_FORCES                                           1.0E-06
  HFX_INFO| EPS_STORAGE_SCALING:                                         1.0E+00
  HFX_INFO| NBINS:                                                            64
  HFX_INFO| BLOCK_SIZE:                                                        1
  HFX_INFO| FRACTION:                                               1.0000000000
  HFX_INFO| Interaction Potential:                                       COULOMB
  HFX_INFO| Number of periodic shells considered:                           NONE
  HFX_INFO| Number of periodic cells considered:                            NONE


 Number of electrons:                                                         20
 Number of occupied orbitals:                                                 10
 Number of molecular orbitals:                                                10

 Number of orbital functions:                                                 48
 Number of independent orbital functions:                                     48

 Extrapolation method: initial_guess

 Atomic guess: The first density matrix is obtained in terms of atomic orbitals
               and electronic configurations assigned to each atomic kind

 Guess for atomic kind: O

 Electronic structure
    Total number of core electrons                                          0.00
    Total number of valence electrons                                       8.00
    Total number of electrons                                               8.00
    Multiplicity                                                   not specified
    S      2.00  2.00
    P      4.00


 *******************************************************************************
                  Iteration          Convergence                     Energy [au]
 *******************************************************************************
                          1         2.18571                     -73.284931831410
                          2         2.38469                     -73.529925662521
                          3        0.865951E-01                 -74.425044965485
                          4        0.406367E-03                 -74.426129469880
                          5        0.142015E-03                 -74.426129473071
                          6        0.521222E-06                 -74.426129475952

 Energy components [Hartree]           Total Energy ::          -74.426129475952
                                        Band Energy ::          -40.441472394299
                                     Kinetic Energy ::           74.391654287772
                                   Potential Energy ::         -148.817783763724
                                      Virial (-V/T) ::            2.000463428170
                                        Core Energy ::         -103.093739912104
                                          XC Energy ::           -7.797709278605
                                     Coulomb Energy ::           36.465319714758

 Orbital energies  State     L     Occupation   Energy[a.u.]          Energy[eV]

                       1     0          2.000     -18.744688         -510.068899
                       2     0          2.000      -0.849262          -23.109592

                       1     1          4.000      -0.313393           -8.527861


 Total Electron Density at R=0:                                       291.748243

 Guess for atomic kind: H

 Electronic structure
    Total number of core electrons                                          0.00
    Total number of valence electrons                                       1.00
    Total number of electrons                                               1.00
    Multiplicity                                                   not specified
    S      1.00


 *******************************************************************************
                  Iteration          Convergence                     Energy [au]
 *******************************************************************************
                          1        0.502405E-02                  -0.441325545302
                          2        0.522833E-03                  -0.441349398950
                          3        0.301100E-06                  -0.441349659850

 Energy components [Hartree]           Total Energy ::           -0.441349659850
                                        Band Energy ::           -0.216801195853
                                     Kinetic Energy ::            0.454184052333
                                   Potential Energy ::           -0.895533712183
                                      Virial (-V/T) ::            1.971741868926
                                        Core Energy ::           -0.496336881879
                                          XC Energy ::           -0.243413638209
                                     Coulomb Energy ::            0.298400860239

 Orbital energies  State     L     Occupation   Energy[a.u.]          Energy[eV]

                       1     0          1.000      -0.216801           -5.899461


 Total Electron Density at R=0:                                         0.248919
 Re-scaling the density matrix to get the right number of electrons
                  # Electrons              Trace(P)               Scaling factor
                           20                20.000                        1.000


 SCF WAVEFUNCTION OPTIMIZATION

  Step     Update method      Time    Convergence         Total energy    Change
  ------------------------------------------------------------------------------

  HFX_MEM_INFO| Est. max. program size before HFX [MiB]:                     326
  HFX_MEM_INFO| Number of cart. primitive ERI's calculated:              7463902
  HFX_MEM_INFO| Number of sph. ERI's calculated:                         1004232
  HFX_MEM_INFO| Number of sph. ERI's stored in-core:                     1004232
  HFX_MEM_INFO| Number of sph. ERI's stored on disk:                           0
  HFX_MEM_INFO| Number of sph. ERI's calculated on the fly:                    0
  HFX_MEM_INFO| Total memory consumption ERI's RAM [MiB]:                      2
  HFX_MEM_INFO| Whereof max-vals [MiB]:                                        1
  HFX_MEM_INFO| Total compression factor ERI's RAM:                         3.95
  HFX_MEM_INFO| Total memory consumption ERI's disk [MiB]:                     0
  HFX_MEM_INFO| Total compression factor ERI's disk:                        0.00
  HFX_MEM_INFO| Size of density/Fock matrix [MiB]:                             0
  HFX_MEM_INFO| Size of buffers [MiB]:                                         0
  HFX_MEM_INFO| Est. max. program size after HFX  [MiB]:                     328

     1 P_Mix/Diag. 0.40E+00    3.0     0.47702169      -151.9736785369 -1.52E+02
     2 P_Mix/Diag. 0.40E+00    1.6     0.28112308      -151.8935857910  8.01E-02
     3 P_Mix/Diag. 0.40E+00    1.6     0.16781802      -151.9120270664 -1.84E-02
     4 P_Mix/Diag. 0.40E+00    1.6     0.10163093      -151.9509895452 -3.90E-02
     5 P_Mix/Diag. 0.40E+00    1.6     0.06191197      -151.9854459763 -3.45E-02
     6 DIIS/Diag.  0.15E-01    1.6     0.03956689      -152.0104851805 -2.50E-02
     7 DIIS/Diag.  0.18E-02    1.6     0.00077578      -152.0553999531 -4.49E-02
     8 DIIS/Diag.  0.16E-02    1.6     0.00099904      -152.0554013649 -1.41E-06
     9 DIIS/Diag.  0.11E-02    1.6     0.00038586      -152.0554015843 -2.19E-07
    10 DIIS/Diag.  0.12E-03    1.6     0.00004124      -152.0554021853 -6.01E-07
    11 DIIS/Diag.  0.23E-04    1.6     0.00001229      -152.0554021924 -7.08E-09
    12 DIIS/Diag.  0.34E-05    1.6     0.00000143      -152.0554021929 -4.55E-10
    13 DIIS/Diag.  0.17E-05    1.6     0.00000060      -152.0554021929 -8.10E-12
    14 DIIS/Diag.  0.84E-06    1.6     0.00000038      -152.0554021929 -1.62E-12
    15 DIIS/Diag.  0.17E-06    1.6     0.00000010      -152.0554021929 -5.68E-13

  *** SCF run converged in    15 steps ***


  Electronic density on regular grids:        -16.0242299251        3.9757700749
  Core density on regular grids:               20.0000000000       -0.0000000000
  Hard and soft densities (Lebedev):          -30.0665877023      -26.0908183400
  Total Rho_soft + Rho1_hard - Rho1_soft      -19.9999992874
  Total charge density (r-space):               0.0000007126
  Total Rho_soft + Rho0_soft (g-space):         0.0000006584

  Overlap energy of the core charge distribution:               0.00000037084277
  Self energy of the core charge distribution:               -151.46213629121465
  Core Hamiltonian energy:                                    -10.72499638858661
  Hartree energy:                                              43.66389238124007
  Exchange-correlation energy:                                  0.00000000000000
  Hartree-Fock Exchange energy:                               -17.96877180772617

  GAPW| Exc from hard and soft atomic rho1:                     0.00000000000000
  GAPW| local Eh = 1 center integrals:                        -15.56339045744711

  Total energy:                                              -152.05540219289171

  outer SCF iter =    1 RMS gradient =   0.00E+00 energy =       -152.0554021929
  outer SCF loop converged in   1 iterations or   15 steps


 !-----------------------------------------------------------------------------!
                     Mulliken Population Analysis

 #  Atom  Element  Kind  Atomic population                           Net charge
       1     O        1          8.724454                             -0.724454
       2     H        2          0.632863                              0.367137
       3     H        2          0.672097                              0.327903
       4     O        1          8.676238                             -0.676238
       5     H        2          0.647174                              0.352826
       6     H        2          0.647174                              0.352826
 # Total charge                             20.000000                  0.000000

 !-----------------------------------------------------------------------------!

 !-----------------------------------------------------------------------------!
                           Hirshfeld Charges

  #Atom  Element  Kind  Ref Charge     Population                    Net charge
      1       O      1       8.000          9.176                        -1.176
      2       H      2       1.000          0.399                         0.601
      3       H      2       1.000          0.414                         0.586
      4       O      1       8.000          9.195                        -1.195
      5       H      2       1.000          0.407                         0.593
      6       H      2       1.000          0.407                         0.593

  Total Charge                                                            0.002
 !-----------------------------------------------------------------------------!
  
  Eigenvalues of the occupied subspace spin            1
 ---------------------------------------------
     -20.58543198     -20.52266373      -1.37636994      -1.31583702
      -0.74330109      -0.68792163      -0.60000794      -0.54675519
      -0.51873638      -0.46864422
 Fermi Energy [eV] :  -12.752458
  
  Lowest eigenvalues of the unoccupied subspace spin            1
 ---------------------------------------------

 -----------------------------------------------
             MAXIMAL ORBITAL ANALYSIS           
 -----------------------------------------------
 SIZE of NOMOA is           10  and nmo is           10
 NOMOA is           0           0           0           0           0           0           0           0           0           0
 INPUT TAGS:
 NFRG =            2
 LFRG =            3           3
 IFRG =            1           2           3           4           5           6
 NOMOA =            0           0           0           0           0           0           0           0           0           0
 NOMOAA =            0           0           0           0           0           0           0           0           0           0
 NOMOAB = 
 IF MO_CUBE PRINT IS ACTIVE THEN
 MO_LIST =           19          20
 -------------------------
 No. of spherical basis fns is           14 for atom kind           1 atom nameO                                                                               
 No. of spherical basis fns is            5 for atom kind           2 atom nameH                                                                               
 No. of spherical basis fns is            5 for atom kind           2 atom nameH                                                                               
 No. of spherical basis fns is           14 for atom kind           1 atom nameO                                                                               
 No. of spherical basis fns is            5 for atom kind           2 atom nameH                                                                               
 No. of spherical basis fns is            5 for atom kind           2 atom nameH                                                                               
 No. of spherical basis fns is           14 for atom kind           1 atom nameO                                                                               
    -moa- orb. -i- , max. ovlp., occ. number, occ.  1    0.000000      0.000000  2    0.000000
    -moa- orb. -i- , max. ovlp., occ. number, occ.  2    0.000000      0.000000  2    0.000000
    -moa- orb. -i- , max. ovlp., occ. number, occ.  3    0.000000      0.000000  2    0.000000
    -moa- orb. -i- , max. ovlp., occ. number, occ.  4    0.000000      0.000000  2    0.000000
    -moa- orb. -i- , max. ovlp., occ. number, occ.  5    0.000268      0.000000  2    0.000000
    -moa- orb. -i- , max. ovlp., occ. number, occ.  6    0.003196      0.000010  2    0.000020
    -moa- orb. -i- , max. ovlp., occ. number, occ.  7    0.003813      0.000015  2    0.000029
    -moa- orb. -i- , max. ovlp., occ. number, occ.  8    0.006372      0.000041  2    0.000081
    -moa- orb. -i- , max. ovlp., occ. number, occ.  9    0.035258      0.001243  2    0.002486
    -moa- orb. -i- , max. ovlp., occ. number, occ. 10    0.747563      0.558851  2    1.117702
    -moa- orb. -i- , max. ovlp., occ. number, occ. 11    0.801875      0.643003  2    1.286007
    -moa- orb. -i- , max. ovlp., occ. number, occ. 12    0.972402      0.945566  2    1.891132
    -moa- orb. -i- , max. ovlp., occ. number, occ. 13    0.978177      0.956829  2    1.913659
    -moa- orb. -i- , max. ovlp., occ. number, occ. 14    0.999817      0.999633  2    1.999267
 No. of spherical basis fns is            5 for atom kind           2 atom nameH                                                                               
    -moa- orb. -i- , max. ovlp., occ. number, occ.  1    0.104158      0.010849  2    0.021698
    -moa- orb. -i- , max. ovlp., occ. number, occ.  2    0.119672      0.014321  2    0.028643
    -moa- orb. -i- , max. ovlp., occ. number, occ.  3    0.145463      0.021159  2    0.042319
    -moa- orb. -i- , max. ovlp., occ. number, occ.  4    0.225680      0.050931  2    0.101863
    -moa- orb. -i- , max. ovlp., occ. number, occ.  5    0.610192      0.372334  2    0.744668
 No. of spherical basis fns is            5 for atom kind           2 atom nameH                                                                               
    -moa- orb. -i- , max. ovlp., occ. number, occ.  1    0.011097      0.000123  2    0.000246
    -moa- orb. -i- , max. ovlp., occ. number, occ.  2    0.121856      0.014849  2    0.029698
    -moa- orb. -i- , max. ovlp., occ. number, occ.  3    0.147958      0.021892  2    0.043783
    -moa- orb. -i- , max. ovlp., occ. number, occ.  4    0.173761      0.030193  2    0.060386
    -moa- orb. -i- , max. ovlp., occ. number, occ.  5    0.621276      0.385984  2    0.771968
 No. of spherical basis fns is           14 for atom kind           1 atom nameO                                                                               
    -moa- orb. -i- , max. ovlp., occ. number, occ.  1    0.000000      0.000000  2    0.000000
    -moa- orb. -i- , max. ovlp., occ. number, occ.  2    0.000000      0.000000  2    0.000000
    -moa- orb. -i- , max. ovlp., occ. number, occ.  3    0.000000      0.000000  2    0.000000
    -moa- orb. -i- , max. ovlp., occ. number, occ.  4    0.000000      0.000000  2    0.000000
    -moa- orb. -i- , max. ovlp., occ. number, occ.  5    0.000103      0.000000  2    0.000000
    -moa- orb. -i- , max. ovlp., occ. number, occ.  6    0.002604      0.000007  2    0.000014
    -moa- orb. -i- , max. ovlp., occ. number, occ.  7    0.005608      0.000031  2    0.000063
    -moa- orb. -i- , max. ovlp., occ. number, occ.  8    0.006542      0.000043  2    0.000086
    -moa- orb. -i- , max. ovlp., occ. number, occ.  9    0.063979      0.004093  2    0.008187
    -moa- orb. -i- , max. ovlp., occ. number, occ. 10    0.747705      0.559062  2    1.118124
    -moa- orb. -i- , max. ovlp., occ. number, occ. 11    0.799242      0.638788  2    1.277577
    -moa- orb. -i- , max. ovlp., occ. number, occ. 12    0.960876      0.923282  2    1.846565
    -moa- orb. -i- , max. ovlp., occ. number, occ. 13    0.976070      0.952712  2    1.905425
    -moa- orb. -i- , max. ovlp., occ. number, occ. 14    0.999744      0.999489  2    1.998978
 No. of spherical basis fns is            5 for atom kind           2 atom nameH                                                                               
    -moa- orb. -i- , max. ovlp., occ. number, occ.  1    0.017139      0.000294  2    0.000587
    -moa- orb. -i- , max. ovlp., occ. number, occ.  2    0.118682      0.014085  2    0.028171
    -moa- orb. -i- , max. ovlp., occ. number, occ.  3    0.146309      0.021406  2    0.042813
    -moa- orb. -i- , max. ovlp., occ. number, occ.  4    0.173062      0.029950  2    0.059901
    -moa- orb. -i- , max. ovlp., occ. number, occ.  5    0.617735      0.381596  2    0.763192
 No. of spherical basis fns is            5 for atom kind           2 atom nameH                                                                               
    -moa- orb. -i- , max. ovlp., occ. number, occ.  1    0.017139      0.000294  2    0.000587
    -moa- orb. -i- , max. ovlp., occ. number, occ.  2    0.118682      0.014085  2    0.028171
    -moa- orb. -i- , max. ovlp., occ. number, occ.  3    0.146309      0.021406  2    0.042813
    -moa- orb. -i- , max. ovlp., occ. number, occ.  4    0.173062      0.029950  2    0.059901
    -moa- orb. -i- , max. ovlp., occ. number, occ.  5    0.617735      0.381596  2    0.763192
   MOA for Atoms
   -------------
          ATOM            NUC       POP         CHRG          SPIN
      ----------------------------------------------------
        1       O         8      8.21038     -0.21038      0.00000
        2       H         1      0.93919      0.06081      0.00000
        3       H         1      0.90608      0.09392      0.00000
        4       O         8      8.15502     -0.15502      0.00000
        5       H         1      0.89466      0.10534      0.00000
        6       H         1      0.89466      0.10534      0.00000
 -------
 Entered MOA fragment analysis section
 nfrg, lfrg            2           3
 -----------------------------------------------
             MOA Fragment analysis           
 -----------------------------------------------
 Atoms in fragement,            1  are:            1           2           3
 Total nuclear charge on fragement,            1  is:           10
 Total nuclear charge on rest of the system is:           10
 Basis functions in the fragment or not, for frag. #           1 T T T T T T T T T T T T T T T T T T T T T T T T F F F F F F F F F F F F F F F F F F F F F F F F
 No. of spherical basis fns is           14 for atom kind           1 atom nameO                                                                               
 No. of spherical basis fns is            5 for atom kind           2 atom nameH                                                                               
 No. of spherical basis fns is            5 for atom kind           2 atom nameH                                                                               
 No. of spherical basis fns is           14 for atom kind           1 atom nameO                                                                               
 No. of spherical basis fns is            5 for atom kind           2 atom nameH                                                                               
 No. of spherical basis fns is            5 for atom kind           2 atom nameH                                                                               
 IAT, JAT =            1           1 T T
 IAT, JAT =            1           2 T T
 IAT, JAT =            1           3 T T
 IAT, JAT =            1           4 T F
 IAT, JAT =            1           5 T F
 IAT, JAT =            1           6 T F
 IAT, JAT =            2           1 T T
 IAT, JAT =            2           2 T T
 IAT, JAT =            2           3 T T
 IAT, JAT =            2           4 T F
 IAT, JAT =            2           5 T F
 IAT, JAT =            2           6 T F
 IAT, JAT =            3           1 T T
 IAT, JAT =            3           2 T T
 IAT, JAT =            3           3 T T
 IAT, JAT =            3           4 T F
 IAT, JAT =            3           5 T F
 IAT, JAT =            3           6 T F
 IAT, JAT =            4           1 F T
 IAT, JAT =            4           2 F T
 IAT, JAT =            4           3 F T
 IAT, JAT =            4           4 F F
 IAT, JAT =            4           5 F F
 IAT, JAT =            4           6 F F
 IAT, JAT =            5           1 F T
 IAT, JAT =            5           2 F T
 IAT, JAT =            5           3 F T
 IAT, JAT =            5           4 F F
 IAT, JAT =            5           5 F F
 IAT, JAT =            5           6 F F
 IAT, JAT =            6           1 F T
 IAT, JAT =            6           2 F T
 IAT, JAT =            6           3 F T
 IAT, JAT =            6           4 F F
 IAT, JAT =            6           5 F F
 IAT, JAT =            6           6 F F
  ----- now ... the analysis -----
  -MOA- analysis for -fragment- =           1
  -------------------------------
 ---------------------
 alpha electrons
 ---------------------
  ----- now ... the analysis -----
  -MOA- analysis for -fragment- =           1
  -------------------------------
    -moa- orb. -i- , max. ovlp., occ. number, occ.  1    0.000000      0.000000  2    0.000000
    -moa- orb. -i- , max. ovlp., occ. number, occ.  2    0.000000      0.000000  2    0.000000
    -moa- orb. -i- , max. ovlp., occ. number, occ.  3    0.000000      0.000000  2    0.000000
    -moa- orb. -i- , max. ovlp., occ. number, occ.  4    0.000000      0.000000  2    0.000000
    -moa- orb. -i- , max. ovlp., occ. number, occ.  5    0.000000      0.000000  2    0.000000
    -moa- orb. -i- , max. ovlp., occ. number, occ.  6    0.000000      0.000000  2    0.000000
    -moa- orb. -i- , max. ovlp., occ. number, occ.  7    0.000000      0.000000  2    0.000000
    -moa- orb. -i- , max. ovlp., occ. number, occ.  8    0.000000      0.000000  2    0.000000
    -moa- orb. -i- , max. ovlp., occ. number, occ.  9    0.000000      0.000000  2    0.000000
    -moa- orb. -i- , max. ovlp., occ. number, occ. 10    0.000000      0.000000  2    0.000000
    -moa- orb. -i- , max. ovlp., occ. number, occ. 11    0.000000      0.000000  2    0.000000
    -moa- orb. -i- , max. ovlp., occ. number, occ. 12    0.000000      0.000000  2    0.000000
    -moa- orb. -i- , max. ovlp., occ. number, occ. 13    0.000000      0.000000  2    0.000000
    -moa- orb. -i- , max. ovlp., occ. number, occ. 14    0.000000      0.000000  2    0.000000
    -moa- orb. -i- , max. ovlp., occ. number, occ. 15    0.000379      0.000000  2    0.000000
    -moa- orb. -i- , max. ovlp., occ. number, occ. 16    0.005705      0.000033  2    0.000065
    -moa- orb. -i- , max. ovlp., occ. number, occ. 17    0.009599      0.000092  2    0.000184
    -moa- orb. -i- , max. ovlp., occ. number, occ. 18    0.029972      0.000898  2    0.001797
    -moa- orb. -i- , max. ovlp., occ. number, occ. 19    0.255052      0.065051  2    0.130103
    -moa- orb. -i- , max. ovlp., occ. number, occ. 20    0.997056      0.994121  2    1.988242
    -moa- orb. -i- , max. ovlp., occ. number, occ. 21    0.999920      0.999840  2    1.999681
    -moa- orb. -i- , max. ovlp., occ. number, occ. 22    0.999977      0.999954  2    1.999907
    -moa- orb. -i- , max. ovlp., occ. number, occ. 23    0.999997      0.999994  2    1.999987
    -moa- orb. -i- , max. ovlp., occ. number, occ. 24    1.000000      1.000000  2    2.000000
                                                                                      --------
                                                      -moa- population on fragment   10.119966
 nbf value is           24
 nfrg, lfrg            2           3
 -----------------------------------------------
             MOA Fragment analysis           
 -----------------------------------------------
 Atoms in fragement,            2  are:            4           5           6
 Total nuclear charge on fragement,            2  is:           10
 Total nuclear charge on rest of the system is:           10
 Basis functions in the fragment or not, for frag. #           2 F F F F F F F F F F F F F F F F F F F F F F F F T T T T T T T T T T T T T T T T T T T T T T T T
 No. of spherical basis fns is           14 for atom kind           1 atom nameO                                                                               
 No. of spherical basis fns is            5 for atom kind           2 atom nameH                                                                               
 No. of spherical basis fns is            5 for atom kind           2 atom nameH                                                                               
 No. of spherical basis fns is           14 for atom kind           1 atom nameO                                                                               
 No. of spherical basis fns is            5 for atom kind           2 atom nameH                                                                               
 No. of spherical basis fns is            5 for atom kind           2 atom nameH                                                                               
 IAT, JAT =            1           1 F F
 IAT, JAT =            1           2 F F
 IAT, JAT =            1           3 F F
 IAT, JAT =            1           4 F T
 IAT, JAT =            1           5 F T
 IAT, JAT =            1           6 F T
 IAT, JAT =            2           1 F F
 IAT, JAT =            2           2 F F
 IAT, JAT =            2           3 F F
 IAT, JAT =            2           4 F T
 IAT, JAT =            2           5 F T
 IAT, JAT =            2           6 F T
 IAT, JAT =            3           1 F F
 IAT, JAT =            3           2 F F
 IAT, JAT =            3           3 F F
 IAT, JAT =            3           4 F T
 IAT, JAT =            3           5 F T
 IAT, JAT =            3           6 F T
 IAT, JAT =            4           1 T F
 IAT, JAT =            4           2 T F
 IAT, JAT =            4           3 T F
 IAT, JAT =            4           4 T T
 IAT, JAT =            4           5 T T
 IAT, JAT =            4           6 T T
 IAT, JAT =            5           1 T F
 IAT, JAT =            5           2 T F
 IAT, JAT =            5           3 T F
 IAT, JAT =            5           4 T T
 IAT, JAT =            5           5 T T
 IAT, JAT =            5           6 T T
 IAT, JAT =            6           1 T F
 IAT, JAT =            6           2 T F
 IAT, JAT =            6           3 T F
 IAT, JAT =            6           4 T T
 IAT, JAT =            6           5 T T
 IAT, JAT =            6           6 T T
  ----- now ... the analysis -----
  -MOA- analysis for -fragment- =           2
  -------------------------------
 ---------------------
 alpha electrons
 ---------------------
  ----- now ... the analysis -----
  -MOA- analysis for -fragment- =           2
  -------------------------------
    -moa- orb. -i- , max. ovlp., occ. number, occ.  1    0.000000      0.000000  2    0.000000
    -moa- orb. -i- , max. ovlp., occ. number, occ.  2    0.000000      0.000000  2    0.000000
    -moa- orb. -i- , max. ovlp., occ. number, occ.  3    0.000000      0.000000  2    0.000000
    -moa- orb. -i- , max. ovlp., occ. number, occ.  4    0.000000      0.000000  2    0.000000
    -moa- orb. -i- , max. ovlp., occ. number, occ.  5    0.000000      0.000000  2    0.000000
    -moa- orb. -i- , max. ovlp., occ. number, occ.  6    0.000000      0.000000  2    0.000000
    -moa- orb. -i- , max. ovlp., occ. number, occ.  7    0.000000      0.000000  2    0.000000
    -moa- orb. -i- , max. ovlp., occ. number, occ.  8    0.000000      0.000000  2    0.000000
    -moa- orb. -i- , max. ovlp., occ. number, occ.  9    0.000000      0.000000  2    0.000000
    -moa- orb. -i- , max. ovlp., occ. number, occ. 10    0.000000      0.000000  2    0.000000
    -moa- orb. -i- , max. ovlp., occ. number, occ. 11    0.000000      0.000000  2    0.000000
    -moa- orb. -i- , max. ovlp., occ. number, occ. 12    0.000000      0.000000  2    0.000000
    -moa- orb. -i- , max. ovlp., occ. number, occ. 13    0.000000      0.000000  2    0.000000
    -moa- orb. -i- , max. ovlp., occ. number, occ. 14    0.000000      0.000000  2    0.000000
    -moa- orb. -i- , max. ovlp., occ. number, occ. 15    0.000258      0.000000  2    0.000000
    -moa- orb. -i- , max. ovlp., occ. number, occ. 16    0.005171      0.000027  2    0.000053
    -moa- orb. -i- , max. ovlp., occ. number, occ. 17    0.007217      0.000052  2    0.000104
    -moa- orb. -i- , max. ovlp., occ. number, occ. 18    0.012370      0.000153  2    0.000306
    -moa- orb. -i- , max. ovlp., occ. number, occ. 19    0.073791      0.005445  2    0.010890
    -moa- orb. -i- , max. ovlp., occ. number, occ. 20    0.981393      0.963132  2    1.926264
    -moa- orb. -i- , max. ovlp., occ. number, occ. 21    0.999557      0.999113  2    1.998227
    -moa- orb. -i- , max. ovlp., occ. number, occ. 22    0.999953      0.999906  2    1.999813
    -moa- orb. -i- , max. ovlp., occ. number, occ. 23    0.999981      0.999962  2    1.999924
    -moa- orb. -i- , max. ovlp., occ. number, occ. 24    1.000000      1.000000  2    1.999999
                                                                                      --------
                                                      -moa- population on fragment    9.935582
 nbf value is           24
   MOA for Fragments
   -------------
  FRAG   POP         CHRG          SPIN
      ----------------------------------------------------
    1     10.11997     -0.11997      0.00000
    2      9.93558      0.06442      0.00000
 ..... END of MOA analysis for Fragments .....
  
 ..... END of MOA analysis .....

 ENERGY| Total FORCE_EVAL ( QS ) energy (a.u.):             -152.055402192891705


 -------------------------------------------------------------------------------
 -                                                                             -
 -                                DBCSR STATISTICS                             -
 -                                                                             -
 -------------------------------------------------------------------------------
 COUNTER                                    TOTAL       BLAS       SMM       ACC
 flops     5 x     5 x    10                75000     100.0%      0.0%      0.0%
 flops     5 x    14 x    10                84000     100.0%      0.0%      0.0%
 flops    14 x     5 x    10                84000     100.0%      0.0%      0.0%
 flops    14 x    14 x    10               176400     100.0%      0.0%      0.0%
 flops inhomo. stacks                           0       0.0%      0.0%      0.0%
 flops total                       419.400000E+03     100.0%      0.0%      0.0%
 flops max/rank                     58.800000E+03     100.0%      0.0%      0.0%
 matmuls inhomo. stacks                         0       0.0%      0.0%      0.0%
 matmuls total                                315     100.0%      0.0%      0.0%
 number of processed stacks                   195     100.0%      0.0%      0.0%
 average stack size                                     1.6       0.0       0.0
 marketing flops                   691.200000E+03
 -------------------------------------------------------------------------------
 # multiplications                             15
 max memory usage/rank             382.976000E+06
 # max total images/rank                        1
 # max 3D layers                                1
 # MPI messages exchanged                    1440
 MPI messages size (bytes):
  total size                       345.600000E+03
  min size                           0.000000E+00
  max size                           1.120000E+03
  average size                     240.000000E+00
 MPI breakdown and total messages size (bytes):
             size <=      128                1080                        0
       128 < size <=     8192                 360                   345600
      8192 < size <=    32768                   0                        0
     32768 < size <=   131072                   0                        0
    131072 < size <=  4194304                   0                        0
   4194304 < size <= 16777216                   0                        0
  16777216 < size                               0                        0
 -------------------------------------------------------------------------------

 MEMORY| Estimated peak process memory [MiB]                                 366

 -------------------------------------------------------------------------------
 ----                             MULTIGRID INFO                            ----
 -------------------------------------------------------------------------------
 count for grid        1:          55969          cutoff [a.u.]          300.00
 count for grid        2:           8410          cutoff [a.u.]          100.00
 count for grid        3:           4821          cutoff [a.u.]           33.33
 count for grid        4:           1034          cutoff [a.u.]           11.11
 count for grid        5:              0          cutoff [a.u.]            3.70
 count for grid        6:              0          cutoff [a.u.]            1.23
 count for grid        7:              0          cutoff [a.u.]            0.41
 count for grid        8:              0          cutoff [a.u.]            0.14
 count for grid        9:              0          cutoff [a.u.]            0.05
 count for grid       10:              0          cutoff [a.u.]            0.02
 total gridlevel count  :          70234

 -------------------------------------------------------------------------------
 -                                                                             -
 -                         MESSAGE PASSING PERFORMANCE                         -
 -                                                                             -
 -------------------------------------------------------------------------------

 ROUTINE             CALLS      AVE VOLUME [Bytes]
 MP_Group               44
 MP_Bcast              252                  10981.
 MP_Allreduce          891                   2488.
 MP_Sync             50490
 MP_Alltoall          1155                5610735.
 MP_ISendRecv         4680                  32041.
 MP_Wait              7956
 MP_comm_split          15
 MP_ISend             2545                 576521.
 MP_IRecv             2540                 577643.
 MP_Recv             47043                   1792.
 MP_Memory             600
 -------------------------------------------------------------------------------


 -------------------------------------------------------------------------------
 -                                                                             -
 -                           R E F E R E N C E S                               -
 -                                                                             -
 -------------------------------------------------------------------------------
 
 CP2K version 6.1, the CP2K developers group (2018).
 CP2K is freely available from https://www.cp2k.org/ .

 Schuett, Ole; Messmer, Peter; Hutter, Juerg; VandeVondele, Joost. 
 Electronic Structure Calculations on Graphics Processing Units, John Wiley & Sons, Ltd, 173-190 (2016). 
 GPU-Accelerated Sparse Matrix-Matrix Multiplication for Linear Scaling Density Functional Theory.
 http://dx.doi.org/10.1002/9781118670712.ch8


 Borstnik, U; VandeVondele, J; Weber, V; Hutter, J. 
 PARALLEL COMPUTING, 40 (5-6), 47-58 (2014). 
 Sparse matrix multiplication: The distributed block-compressed sparse
 row library.
 http://dx.doi.org/10.1016/j.parco.2014.03.012


 Hutter, J; Iannuzzi, M; Schiffmann, F; VandeVondele, J. 
 WILEY INTERDISCIPLINARY REVIEWS-COMPUTATIONAL MOLECULAR SCIENCE, 4 (1), 15-25 (2014). 
 CP2K: atomistic simulations of condensed matter systems.
 http://dx.doi.org/10.1002/wcms.1159


 Guidon, M; Hutter, J; VandeVondele, J. 
 JOURNAL OF CHEMICAL THEORY AND COMPUTATION, 5 (11), 3010-3021 (2009). 
 Robust Periodic Hartree-Fock Exchange for Large-Scale Simulations Using
 Gaussian Basis Sets.
 http://dx.doi.org/10.1021/ct900494g


 Guidon, M; Schiffmann, F; Hutter, J; VandeVondele, J. 
 JOURNAL OF CHEMICAL PHYSICS, 128 (21), 214104 (2008). 
 Ab initio molecular dynamics using hybrid density functionals.
 http://dx.doi.org/10.1063/1.2931945


 Genovese, L; Deutsch, T; Goedecker, S. 
 JOURNAL OF CHEMICAL PHYSICS, 127 (5), 054704 (2007). 
 Efficient and accurate three-dimensional Poisson solver for surface
 problems.
 http://dx.doi.org/10.1063/1.2754685


 Genovese, L; Deutsch, T; Neelov, A; Goedecker, S; Beylkin, G. 
 JOURNAL OF CHEMICAL PHYSICS, 125 (7), 074105 (2006). 
 Efficient solution of Poisson's equation with free boundary conditions.
 http://dx.doi.org/10.1063/1.2335442


 Frigo, M; Johnson, SG. 
 PROCEEDINGS OF THE IEEE, 93 (2), 216-231 (2005). 
 The design and implementation of FFTW3.
 http://dx.doi.org/10.1109/JPROC.2004.840301


 Lippert, G; Hutter, J; Parrinello, M. 
 THEORETICAL CHEMISTRY ACCOUNTS, 103 (2), 124-140 (1999). 
 The Gaussian and augmented-plane-wave density functional method for ab
 initio molecular dynamics simulations.
 http://dx.doi.org/10.1007/s002140050523


 Krack, M; Parrinello, M. 
 PHYSICAL CHEMISTRY CHEMICAL PHYSICS, 2 (10), 2105-2112 (2000). 
 All-electron ab-initio molecular dynamics.
 http://dx.doi.org/10.1039/b001167n


 -------------------------------------------------------------------------------
 -                                                                             -
 -                                T I M I N G                                  -
 -                                                                             -
 -------------------------------------------------------------------------------
 SUBROUTINE                       CALLS  ASD         SELF TIME        TOTAL TIME
                                MAXIMUM       AVERAGE  MAXIMUM  AVERAGE  MAXIMUM
 CP2K                                 1  1.0    0.046    0.048   33.599   33.600
 qs_energies                          1  2.0    0.004    0.004   32.910   33.056
 scf_env_do_scf                       1  3.0    0.000    0.000   25.322   25.323
 scf_env_do_scf_inner_loop           15  4.0    0.001    0.002   25.320   25.322
 qs_ks_update_qs_env                 15  5.0    0.000    0.001   20.112   20.113
 rebuild_ks_matrix                   15  6.0    0.000    0.000   20.111   20.112
 qs_ks_build_kohn_sham_matrix        15  7.0    0.011    0.013   20.110   20.112
 pw_transfer                        445  9.2    0.017    0.018   13.317   13.656
 fft_wrap_pw1pw2                    430 10.2    0.002    0.003   13.264   13.597
 fft_wrap_pw1pw2_300                115 10.9    0.825    0.997   12.430   12.899
 fft3d_ps                           430 12.2    6.754    7.154   10.555   10.789
 pw_poisson_solve                    15  8.0    0.289    0.329    8.601    8.601
 qs_energies_properties               1  3.0    0.000    0.000    7.032    7.177
 maximal_orbital_analysis             1  4.0    0.094    0.112    7.032    7.177
 moax_frg                             2  5.0    0.026    0.028    6.914    7.059
 orbmoa_frg                           2  6.0    0.039    0.582    6.731    7.022
 qs_rho_update_rho                   16  5.0    0.000    0.000    5.462    5.462
 calculate_rho_elec                  16  6.0    0.074    0.127    5.457    5.457
 density_rs2pw                       16  7.0    0.001    0.001    5.118    5.207
 pw_to_cube                           4  7.0    0.331    4.798    5.128    5.166
 mp_sync                          50490  8.0    4.781    5.093    4.781    5.093
 rs_pw_transfer                     382  9.3    0.003    0.004    4.174    4.464
 prepare_gapw_den                    15  8.0    0.008    0.019    4.291    4.342
 ps_wavelet_solve                    15  9.0    3.017    3.312    3.558    3.599
 sum_up_and_integrate                15  8.0    0.000    0.000    3.183    3.200
 integrate_v_rspace                  15  9.0    0.017    0.060    3.183    3.200
 potential_pw2rs                     15 10.0    0.003    0.003    3.136    3.136
 mp_alltoall_z22v                   430 14.2    1.426    2.789    1.426    2.789
 yz_to_x                            145 12.6    1.172    1.416    2.090    2.657
 put_rho0_on_grid                    15  9.0    0.053    0.058    2.529    2.580
 mp_alltoall_d54                     15 10.0    0.281    2.454    0.281    2.454
 rs_pw_transfer_RS2PW_300            36  9.8    1.165    1.407    1.767    2.162
 x_to_yz                            110 13.8    1.184    1.418    1.691    1.767
 rs_pw_transfer_PW2RS_300            31 10.9    1.009    1.182    1.573    1.731
 calculate_rho_atom                  30  9.0    0.780    1.710    0.780    1.711
 mp_waitany                        2040 11.3    0.980    1.707    0.980    1.707
 calculate_wavefunction               4  7.0    0.236    0.274    1.560    1.603
 pw_gather_p                        245 11.4    1.042    1.119    1.042    1.119
 mp_sum_d                           616  3.2    0.585    1.090    0.585    1.090
 pw_poisson_rebuild                  15  9.0    0.000    0.000    1.055    1.072
 ps_wavelet_create                    1 10.0    0.000    0.000    1.055    1.072
 RS_z_slice_distribution              1 11.0    0.997    1.056    1.055    1.072
 mp_sum_dv                           31  8.9    0.914    1.066    0.914    1.066
 integrate_vhg0_rspace               15  8.0    0.004    0.008    0.971    1.015
 pw_scatter_p                       185 13.3    0.796    0.869    0.796    0.869
 mp_waitall_1                      5916 11.4    0.294    0.860    0.294    0.860
 fft_wrap_pw1pw2_100                 35 11.3    0.037    0.049    0.672    0.819
 mp_alltoall_d45                     16 10.1    0.242    0.725    0.242    0.725
 rs_grid_zero                       277  8.3    0.575    0.690    0.575    0.690
 -------------------------------------------------------------------------------

 The number of warnings for this run is : 0
 
 -------------------------------------------------------------------------------
  **** **** ******  **  PROGRAM ENDED AT                 2020-01-29 14:38:02.300
 ***** ** ***  *** **   PROGRAM RAN ON            cpn-p28-42.cbls.ccr.buffalo.ed
 **    ****   ******    PROGRAM RAN BY                                  pavankum
 ***** **    ** ** **   PROGRAM PROCESS ID                                 23003
  **** **  *******  **  PROGRAM STOPPED IN /projects/academic/mdupuis2/pavan/MOA
                                           /water-dimer/cp2k-cube-test
