 DBCSR| Multiplication driver                                               BLAS
 DBCSR| Multrec recursion limit                                              512
 DBCSR| Multiplication stack size                                           1000
 DBCSR| Maximum elements for images                                    UNLIMITED
 DBCSR| Multiplicative factor virtual images                                   1
 DBCSR| Multiplication size stacks                                             3
 DBCSR| Number of 3D layers                                               SINGLE
 DBCSR| Use MPI memory allocation                                              T
 DBCSR| Use RMA algorithm                                                      F
 DBCSR| Use Communication thread                                               T
 DBCSR| Communication thread load                                             87


  **** **** ******  **  PROGRAM STARTED AT               2019-08-04 08:51:14.736
 ***** ** ***  *** **   PROGRAM STARTED ON        cpn-p28-06.cbls.ccr.buffalo.ed
 **    ****   ******    PROGRAM STARTED BY                              pavankum
 ***** **    ** ** **   PROGRAM PROCESS ID                                 13030
  **** **  *******  **  PROGRAM STARTED IN /projects/academic/mdupuis2/pavan/VAB
                                           _calculation/results_for_paper/7.TiO2
                                           _pbe_plus_U10/state1_at_point0_geo

 CP2K| version string:                                          CP2K version 6.1
 CP2K| source code revision number:                                    svn:18464
 CP2K| cp2kflags: libint fftw3 libxc parallel mpi3 scalapack libderiv_max_am1=5 
 CP2K|            libint_max_am=6
 CP2K| is freely available from                            https://www.cp2k.org/
 CP2K| Program compiled at                          Fri Nov 30 14:17:09 EST 2018
 CP2K| Program compiled on                       srv-p22-12.cbls.ccr.buffalo.edu
 CP2K| Program compiled for                                                local
 CP2K| Data directory path    /projects/academic/mdupuis2/pavan/cp2k/cp2k-6.1/da
 CP2K| Input file name                                                 input.inp

 GLOBAL| Force Environment number                                              1
 GLOBAL| Basis set file name            /projects/academic/mdupuis2/pavan/BASIS_
 GLOBAL| Potential file name            /projects/academic/mdupuis2/pavan/POTENT
 GLOBAL| MM Potential file name                                     MM_POTENTIAL
 GLOBAL| Coordinate file name                                         ./opt0.xyz
 GLOBAL| Method name                                                        CP2K
 GLOBAL| Project name                                                    p_tio2_
 GLOBAL| Preferred FFT library                                             FFTW3
 GLOBAL| Preferred diagonalization lib.                                       SL
 GLOBAL| Run type                                                         ENERGY
 GLOBAL| All-to-all communication in single precision                          F
 GLOBAL| FFTs using library dependent lengths                                  T
 GLOBAL| Global print level                                               MEDIUM
 GLOBAL| Total number of message passing processes                            40
 GLOBAL| Number of threads for this process                                    1
 GLOBAL| This output is from process                                           0
 GLOBAL| CPU model name :  Intel(R) Xeon(R) CPU E5-2650 v4 @ 2.20GHz

 MEMORY| system memory details [Kb]
 MEMORY|                        rank 0           min           max       average
 MEMORY| MemTotal            131746140     131740876     131746140     131743508
 MEMORY| MemFree             109042580      90268124     109042580      99655352
 MEMORY| Buffers                500264        500264        501664        500964
 MEMORY| Cached               17646196      17646196      36553432      27099814
 MEMORY| Slab                   394444        394444        524448        459446
 MEMORY| SReclaimable           281300        281300        341988        311644
 MEMORY| MemLikelyFree       127470340     127470340     127665208     127567774


 *** Fundamental physical constants (SI units) ***

 *** Literature: B. J. Mohr and B. N. Taylor,
 ***             CODATA recommended values of the fundamental physical
 ***             constants: 2006, Web Version 5.1
 ***             http://physics.nist.gov/constants

 Speed of light in vacuum [m/s]                             2.99792458000000E+08
 Magnetic constant or permeability of vacuum [N/A**2]       1.25663706143592E-06
 Electric constant or permittivity of vacuum [F/m]          8.85418781762039E-12
 Planck constant (h) [J*s]                                  6.62606896000000E-34
 Planck constant (h-bar) [J*s]                              1.05457162825177E-34
 Elementary charge [C]                                      1.60217648700000E-19
 Electron mass [kg]                                         9.10938215000000E-31
 Electron g factor [ ]                                     -2.00231930436220E+00
 Proton mass [kg]                                           1.67262163700000E-27
 Fine-structure constant                                    7.29735253760000E-03
 Rydberg constant [1/m]                                     1.09737315685270E+07
 Avogadro constant [1/mol]                                  6.02214179000000E+23
 Boltzmann constant [J/K]                                   1.38065040000000E-23
 Atomic mass unit [kg]                                      1.66053878200000E-27
 Bohr radius [m]                                            5.29177208590000E-11

 *** Conversion factors ***

 [u] -> [a.u.]                                              1.82288848426455E+03
 [Angstrom] -> [Bohr] = [a.u.]                              1.88972613288564E+00
 [a.u.] = [Bohr] -> [Angstrom]                              5.29177208590000E-01
 [a.u.] -> [s]                                              2.41888432650478E-17
 [a.u.] -> [fs]                                             2.41888432650478E-02
 [a.u.] -> [J]                                              4.35974393937059E-18
 [a.u.] -> [N]                                              8.23872205491840E-08
 [a.u.] -> [K]                                              3.15774647902944E+05
 [a.u.] -> [kJ/mol]                                         2.62549961709828E+03
 [a.u.] -> [kcal/mol]                                       6.27509468713739E+02
 [a.u.] -> [Pa]                                             2.94210107994716E+13
 [a.u.] -> [bar]                                            2.94210107994716E+08
 [a.u.] -> [atm]                                            2.90362800883016E+08
 [a.u.] -> [eV]                                             2.72113838565563E+01
 [a.u.] -> [Hz]                                             6.57968392072181E+15
 [a.u.] -> [1/cm] (wave numbers)                            2.19474631370540E+05
 [a.u./Bohr**2] -> [1/cm]                                   5.14048714338585E+03
 

 CELL_TOP| Volume [angstrom^3]:                                         2867.349
 CELL_TOP| Vector a [angstrom    13.869     0.000     0.000    |a| =      13.869
 CELL_TOP| Vector b [angstrom     0.000    13.869     0.000    |b| =      13.869
 CELL_TOP| Vector c [angstrom     0.000     0.000    14.907    |c| =      14.907
 CELL_TOP| Angle (b,c), alpha [degree]:                                   90.000
 CELL_TOP| Angle (a,c), beta  [degree]:                                   90.000
 CELL_TOP| Angle (a,b), gamma [degree]:                                   90.000
 CELL_TOP| Numerically orthorhombic:                                         YES

 CELL| Volume [angstrom^3]:                                             2867.349
 CELL| Vector a [angstrom]:      13.869     0.000     0.000    |a| =      13.869
 CELL| Vector b [angstrom]:       0.000    13.869     0.000    |b| =      13.869
 CELL| Vector c [angstrom]:       0.000     0.000    14.907    |c| =      14.907
 CELL| Angle (b,c), alpha [degree]:                                       90.000
 CELL| Angle (a,c), beta  [degree]:                                       90.000
 CELL| Angle (a,b), gamma [degree]:                                       90.000
 CELL| Numerically orthorhombic:                                             YES

 CELL_REF| Volume [angstrom^3]:                                         2867.349
 CELL_REF| Vector a [angstrom    13.869     0.000     0.000    |a| =      13.869
 CELL_REF| Vector b [angstrom     0.000    13.869     0.000    |b| =      13.869
 CELL_REF| Vector c [angstrom     0.000     0.000    14.907    |c| =      14.907
 CELL_REF| Angle (b,c), alpha [degree]:                                   90.000
 CELL_REF| Angle (a,c), beta  [degree]:                                   90.000
 CELL_REF| Angle (a,b), gamma [degree]:                                   90.000
 CELL_REF| Numerically orthorhombic:                                         YES

 *******************************************************************************
 *******************************************************************************
 **                                                                           **
 **     #####                         ##              ##                      **
 **    ##   ##            ##          ##              ##                      **
 **   ##     ##                       ##            ######                    **
 **   ##     ##  ##   ##  ##   #####  ##  ##   ####   ##    #####    #####    **
 **   ##     ##  ##   ##  ##  ##      ## ##   ##      ##   ##   ##  ##   ##   **
 **   ##  ## ##  ##   ##  ##  ##      ####     ###    ##   ######   ######    **
 **    ##  ###   ##   ##  ##  ##      ## ##      ##   ##   ##       ##        **
 **     #######   #####   ##   #####  ##  ##  ####    ##    #####   ##        **
 **           ##                                                    ##        **
 **                                                                           **
 **                                                ... make the atoms dance   **
 **                                                                           **
 **            Copyright (C) by CP2K developers group (2000 - 2018)           **
 **                                                                           **
 *******************************************************************************

 DFT| Spin unrestricted (spin-polarized) Kohn-Sham calculation               UKS
 DFT| Multiplicity                                                             2
 DFT| Number of spin states                                                    2
 DFT| Charge                                                                  -1
 DFT| Self-interaction correction (SIC)                                       NO
 DFT| Cutoffs: density                                              1.000000E-10
 DFT|          gradient                                             1.000000E-10
 DFT|          tau                                                  1.000000E-10
 DFT|          cutoff_smoothing_range                               0.000000E+00
 DFT| XC density smoothing                                                  NONE
 DFT| XC derivatives                                                          PW

 DFT+U| Method                                                          MULLIKEN
 DFT+U| Check atomic kind information for details
 FUNCTIONAL| ROUTINE=NEW
 FUNCTIONAL| PBE:
 FUNCTIONAL| J.P.Perdew, K.Burke, M.Ernzerhof, Phys. Rev. Letter, vol. 77, n 18,
 FUNCTIONAL|  pp. 3865-3868, (1996){spin polarized}                             

 QS| Method:                                                                 GPW
 QS| Density plane wave grid type                        NON-SPHERICAL FULLSPACE
 QS| Number of grid levels:                                                   10
 QS| Density cutoff [a.u.]:                                                325.0
 QS| Multi grid cutoff [a.u.]: 1) grid level                               325.0
 QS|                           2) grid level                               108.3
 QS|                           3) grid level                                36.1
 QS|                           4) grid level                                12.0
 QS|                           5) grid level                                 4.0
 QS|                           6) grid level                                 1.3
 QS|                           7) grid level                                 0.4
 QS|                           8) grid level                                 0.1
 QS|                           9) grid level                                 0.0
 QS|                          10) grid level                                 0.0
 QS| Grid level progression factor:                                          3.0
 QS| Relative density cutoff [a.u.]:                                        30.0
 QS| Consistent realspace mapping and integration 
 QS| Interaction thresholds: eps_pgf_orb:                                1.0E-12
 QS|                         eps_filter_matrix:                          0.0E+00
 QS|                         eps_core_charge:                            1.0E-14
 QS|                         eps_rho_gspace:                             1.0E-12
 QS|                         eps_rho_rspace:                             1.0E-12
 QS|                         eps_gvg_rspace:                             1.0E-06
 QS|                         eps_ppl:                                    1.0E-02
 QS|                         eps_ppnl:                                   1.0E-08


 ATOMIC KIND INFORMATION

  1. Atomic kind: Ti                                    Number of atoms:      90

     Orbital Basis Set                                         SZV-MOLOPT-SR-GTH

       Number of orbital shell sets:                                           1
       Number of orbital shells:                                               4
       Number of primitive Cartesian functions:                                6
       Number of Cartesian basis functions:                                   11
       Number of spherical basis functions:                                   10
       Norm type:                                                              2

       Normalised Cartesian orbitals:

                        Set   Shell   Orbital            Exponent    Coefficient

                          1       1    2s                7.884570       0.015554
                                                         3.894698       0.963603
                                                         1.513589      -0.631435
                                                         0.596768      -0.343022
                                                         0.222222      -0.006534
                                                         0.077078       0.007652

                          1       2    3s                7.884570      -0.009340
                                                         3.894698       0.212624
                                                         1.513589      -0.258368
                                                         0.596768      -0.226206
                                                         0.222222       0.039438
                                                         0.077078       0.107179

                          1       3    3px               7.884570      -2.034794
                                                         3.894698       0.782008
                                                         1.513589       1.253903
                                                         0.596768       0.347823
                                                         0.222222       0.016778
                                                         0.077078      -0.000433
                          1       3    3py               7.884570      -2.034794
                                                         3.894698       0.782008
                                                         1.513589       1.253903
                                                         0.596768       0.347823
                                                         0.222222       0.016778
                                                         0.077078      -0.000433
                          1       3    3pz               7.884570      -2.034794
                                                         3.894698       0.782008
                                                         1.513589       1.253903
                                                         0.596768       0.347823
                                                         0.222222       0.016778
                                                         0.077078      -0.000433

                          1       4    4dx2              7.884570       3.047350
                                                         3.894698       3.289529
                                                         1.513589       1.060616
                                                         0.596768       0.249930
                                                         0.222222       0.038806
                                                         0.077078       0.002319
                          1       4    4dxy              7.884570       5.278165
                                                         3.894698       5.697631
                                                         1.513589       1.837041
                                                         0.596768       0.432892
                                                         0.222222       0.067214
                                                         0.077078       0.004017
                          1       4    4dxz              7.884570       5.278165
                                                         3.894698       5.697631
                                                         1.513589       1.837041
                                                         0.596768       0.432892
                                                         0.222222       0.067214
                                                         0.077078       0.004017
                          1       4    4dy2              7.884570       3.047350
                                                         3.894698       3.289529
                                                         1.513589       1.060616
                                                         0.596768       0.249930
                                                         0.222222       0.038806
                                                         0.077078       0.002319
                          1       4    4dyz              7.884570       5.278165
                                                         3.894698       5.697631
                                                         1.513589       1.837041
                                                         0.596768       0.432892
                                                         0.222222       0.067214
                                                         0.077078       0.004017
                          1       4    4dz2              7.884570       3.047350
                                                         3.894698       3.289529
                                                         1.513589       1.060616
                                                         0.596768       0.249930
                                                         0.222222       0.038806
                                                         0.077078       0.002319

     GTH Potential information for                                   GTH-PBE-q12

       Description:                       Goedecker-Teter-Hutter pseudopotential
                                           Goedecker et al., PRB 54, 1703 (1996)
                                          Hartwigsen et al., PRB 58, 3641 (1998)
                                                      Krack, TCA 114, 145 (2005)

       Gaussian exponent of the core charge distribution:               3.462604
       Electronic configuration (s p d ...):                           4   6   2

       Parameters of the local part of the GTH pseudopotential:

                          rloc        C1          C2          C3          C4
                        0.380000    8.711442   -0.700287

       Parameters of the non-local part of the GTH pseudopotential:

                   l      r(l)      h(i,j,l)

                   0    0.337771    2.575264    3.692971
                                    3.692971   -4.767605
                   1    0.242531   -4.630541    8.870875
                                    8.870875  -10.496161
                   2    0.243317   -9.406653

     A DFT+U correction is applied to atoms of this atomic kind:
       Angular quantum momentum number L:                                      2
       U(eff) = (U - J) value in [eV]:                                     9.987

  2. Atomic kind: O                                     Number of atoms:     180

     Orbital Basis Set                                            SZV-MOLOPT-GTH

       Number of orbital shell sets:                                           1
       Number of orbital shells:                                               2
       Number of primitive Cartesian functions:                                7
       Number of Cartesian basis functions:                                    4
       Number of spherical basis functions:                                    4
       Norm type:                                                              2

       Normalised Cartesian orbitals:

                        Set   Shell   Orbital            Exponent    Coefficient

                          1       1    2s               12.015955      -0.284499
                                                         5.108150      -0.322498
                                                         2.048398       0.148191
                                                         0.832382       0.295475
                                                         0.352316       0.150829
                                                         0.142977       0.015788
                                                         0.046761      -0.000019

                          1       2    3px              12.015955       1.192141
                                                         5.108150       1.354170
                                                         2.048398       0.897267
                                                         0.832382       0.408839
                                                         0.352316       0.116648
                                                         0.142977       0.022184
                                                         0.046761       0.000308
                          1       2    3py              12.015955       1.192141
                                                         5.108150       1.354170
                                                         2.048398       0.897267
                                                         0.832382       0.408839
                                                         0.352316       0.116648
                                                         0.142977       0.022184
                                                         0.046761       0.000308
                          1       2    3pz              12.015955       1.192141
                                                         5.108150       1.354170
                                                         2.048398       0.897267
                                                         0.832382       0.408839
                                                         0.352316       0.116648
                                                         0.142977       0.022184
                                                         0.046761       0.000308

     GTH Potential information for                                    GTH-PBE-q6

       Description:                       Goedecker-Teter-Hutter pseudopotential
                                           Goedecker et al., PRB 54, 1703 (1996)
                                          Hartwigsen et al., PRB 58, 3641 (1998)
                                                      Krack, TCA 114, 145 (2005)

       Gaussian exponent of the core charge distribution:               8.360253
       Electronic configuration (s p d ...):                               2   4

       Parameters of the local part of the GTH pseudopotential:

                          rloc        C1          C2          C3          C4
                        0.244554  -16.667215    2.487311

       Parameters of the non-local part of the GTH pseudopotential:

                   l      r(l)      h(i,j,l)

                   0    0.220956   18.337458
                   1    0.211332


 MOLECULE KIND INFORMATION


 All atoms are their own molecule, skipping detailed information


 TOTAL NUMBERS AND MAXIMUM NUMBERS

  Total number of            - Atomic kinds:                                   2
                             - Atoms:                                        270
                             - Shell sets:                                   270
                             - Shells:                                       720
                             - Primitive Cartesian functions:               1800
                             - Cartesian basis functions:                   1710
                             - Spherical basis functions:                   1620

  Maximum angular momentum of- Orbital basis functions:                        2
                             - Local part of the GTH pseudopotential:          2
                             - Non-local part of the GTH pseudopotential:      3


 MODULE QUICKSTEP:  ATOMIC COORDINATES IN angstrom

  Atom  Kind  Element       X           Y           Z          Z(eff)       Mass

       1     1 Ti  22    0.000982   -0.000043    0.000115     12.00      47.8670
       2     1 Ti  22    2.313577    2.309377    1.487863     12.00      47.8670
       3     1 Ti  22    4.632894    0.009893    0.000097     12.00      47.8670
       4     1 Ti  22    6.934586    2.311580    1.502017     12.00      47.8670
       5     1 Ti  22    9.243202    0.002476    0.000100     12.00      47.8670
       6     1 Ti  22   11.555436    2.313588    1.487719     12.00      47.8670
       7     1 Ti  22   -0.000761    4.623190    0.000115     12.00      47.8670
       8     1 Ti  22    2.312394    6.933827    1.487282     12.00      47.8670
       9     1 Ti  22    4.625477    4.620198    0.000100     12.00      47.8670
      10     1 Ti  22    6.936590    6.932433    1.487719     12.00      47.8670
      11     1 Ti  22    9.236256    4.613254    0.000097     12.00      47.8670
      12     1 Ti  22   11.554576    6.931569    1.488705     12.00      47.8670
      13     1 Ti  22    0.000068    9.246066    0.000106     12.00      47.8670
      14     1 Ti  22    2.314550   11.560549    1.488717     12.00      47.8670
      15     1 Ti  22    4.622961    9.246982    0.000115     12.00      47.8670
      16     1 Ti  22    6.932381   11.559574    1.487863     12.00      47.8670
      17     1 Ti  22    9.246190    9.245236    0.000115     12.00      47.8670
      18     1 Ti  22   11.556830   11.558390    1.487282     12.00      47.8670
      19     1 Ti  22   -0.001330    0.001906    2.975869     12.00      47.8670
      20     1 Ti  22    2.315522    2.306789    4.466067     12.00      47.8670
      21     1 Ti  22    4.630897    0.007890    2.977546     12.00      47.8670
      22     1 Ti  22    6.934707    2.311693    4.501535     12.00      47.8670
      23     1 Ti  22    9.247214   -0.000605    2.980075     12.00      47.8670
      24     1 Ti  22   11.554682    2.317431    4.465933     12.00      47.8670
      25     1 Ti  22    0.001909    4.621677    2.975862     12.00      47.8670
      26     1 Ti  22    2.313888    6.932790    4.465607     12.00      47.8670
      27     1 Ti  22    4.622401    4.624207    2.980074     12.00      47.8670
      28     1 Ti  22    6.940434    6.931683    4.465932     12.00      47.8670
      29     1 Ti  22    9.238370    4.615367    2.977545     12.00      47.8670
      30     1 Ti  22   11.554464    6.931435    4.469262     12.00      47.8670
      31     1 Ti  22    0.000087    9.246082    2.977076     12.00      47.8670
      32     1 Ti  22    2.314753   11.560753    4.469250     12.00      47.8670
      33     1 Ti  22    4.624902    9.244664    2.975868     12.00      47.8670
      34     1 Ti  22    6.929810   11.561488    4.466065     12.00      47.8670
      35     1 Ti  22    9.244689    9.247902    2.975859     12.00      47.8670
      36     1 Ti  22   11.555805   11.559886    4.465605     12.00      47.8670
      37     1 Ti  22    0.000379   -0.000126    5.957740     12.00      47.8670
      38     1 Ti  22    2.311367    2.313083    7.453621     12.00      47.8670
      39     1 Ti  22    4.637946    0.014901    5.958511     12.00      47.8670
      40     1 Ti  22    6.934955    2.311940    7.453531     12.00      47.8670
      41     1 Ti  22    9.242686    0.006077    5.964862     12.00      47.8670
      42     1 Ti  22   11.560247    2.312582    7.453621     12.00      47.8670
      43     1 Ti  22    0.001970    4.625506    5.957875     12.00      47.8670
      44     1 Ti  22    2.313423    6.935726    7.453622     12.00      47.8670
      45     1 Ti  22    4.629085    4.619675    5.964862     12.00      47.8670
      46     1 Ti  22    6.935572    6.937241    7.453621     12.00      47.8670
      47     1 Ti  22    9.231603    4.608604    5.958498     12.00      47.8670
      48     1 Ti  22   11.549186    6.926149    7.453626     12.00      47.8670
      49     1 Ti  22    0.000140    9.246131    5.959069     12.00      47.8670
      50     1 Ti  22    2.320122   11.566120    7.453626     12.00      47.8670
      51     1 Ti  22    4.622883    9.246388    5.957740     12.00      47.8670
      52     1 Ti  22    6.936148   11.557331    7.453621     12.00      47.8670
      53     1 Ti  22    9.248533    9.247929    5.957871     12.00      47.8670
      54     1 Ti  22   11.558716   11.559392    7.453622     12.00      47.8670
      55     1 Ti  22    0.000378   -0.000121    8.949482     12.00      47.8670
      56     1 Ti  22    2.315527    2.306787   10.441182     12.00      47.8670
      57     1 Ti  22    4.637962    0.014917    8.948678     12.00      47.8670
      58     1 Ti  22    6.934707    2.311693   10.405547     12.00      47.8670
      59     1 Ti  22    9.242677    0.006084    8.942321     12.00      47.8670
      60     1 Ti  22   11.554675    2.317431   10.441315     12.00      47.8670
      61     1 Ti  22    0.001971    4.625502    8.949347     12.00      47.8670
      62     1 Ti  22    2.313895    6.932783   10.441642     12.00      47.8670
      63     1 Ti  22    4.629092    4.619666    8.942321     12.00      47.8670
      64     1 Ti  22    6.940434    6.931676   10.441316     12.00      47.8670
      65     1 Ti  22    9.231587    4.608588    8.948691     12.00      47.8670
      66     1 Ti  22   11.554456    6.931428   10.437984     12.00      47.8670
      67     1 Ti  22    0.000140    9.246131    8.948141     12.00      47.8670
      68     1 Ti  22    2.314759   11.560759   10.437996     12.00      47.8670
      69     1 Ti  22    4.622888    9.246387    8.949483     12.00      47.8670
      70     1 Ti  22    6.929808   11.561494   10.441184     12.00      47.8670
      71     1 Ti  22    9.248529    9.247931    8.949351     12.00      47.8670
      72     1 Ti  22   11.555797   11.559893   10.441644     12.00      47.8670
      73     1 Ti  22   -0.001330    0.001908   11.931360     12.00      47.8670
      74     1 Ti  22    2.313578    2.309374   13.419391     12.00      47.8670
      75     1 Ti  22    4.630909    0.007903   11.929646     12.00      47.8670
      76     1 Ti  22    6.934585    2.311580   13.405085     12.00      47.8670
      77     1 Ti  22    9.247213   -0.000605   11.927119     12.00      47.8670
      78     1 Ti  22   11.555436    2.313592   13.419532     12.00      47.8670
      79     1 Ti  22    0.001908    4.621675   11.931367     12.00      47.8670
      80     1 Ti  22    2.312395    6.933825   13.419971     12.00      47.8670
      81     1 Ti  22    4.622400    4.624207   11.927120     12.00      47.8670
      82     1 Ti  22    6.936594    6.932432   13.419533     12.00      47.8670
      83     1 Ti  22    9.238358    4.615354   11.929646     12.00      47.8670
      84     1 Ti  22   11.554573    6.931565   13.418539     12.00      47.8670
      85     1 Ti  22    0.000087    9.246082   11.930135     12.00      47.8670
      86     1 Ti  22    2.314553   11.560553   13.418527     12.00      47.8670
      87     1 Ti  22    4.624903    9.244664   11.931361     12.00      47.8670
      88     1 Ti  22    6.932378   11.559575   13.419390     12.00      47.8670
      89     1 Ti  22    9.244688    9.247901   11.931370     12.00      47.8670
      90     1 Ti  22   11.556829   11.558391   13.419971     12.00      47.8670
      91     2 O    8    1.408646    1.409726   -0.000006      6.00      15.9994
      92     2 O    8    3.212875    3.213159   -0.000005      6.00      15.9994
      93     2 O    8    0.902563    3.720958    1.486735      6.00      15.9994
      94     2 O    8    3.719080    0.902492    1.485764      6.00      15.9994
      95     2 O    8    6.030825    1.407825   -0.000006      6.00      15.9994
      96     2 O    8    7.838257    3.215256   -0.000006      6.00      15.9994
      97     2 O    8    5.522874    3.723189    1.486224      6.00      15.9994
      98     2 O    8    8.346190    0.899873    1.486224      6.00      15.9994
      99     2 O    8   10.656177    1.409896   -0.000005      6.00      15.9994
     100     2 O    8   12.460427    3.213321   -0.000006      6.00      15.9994
     101     2 O    8   10.150003    3.720588    1.485772      6.00      15.9994
     102     2 O    8   12.966535    0.902122    1.486716      6.00      15.9994
     103     2 O    8    1.409545    6.032315   -0.000006      6.00      15.9994
     104     2 O    8    3.213744    7.836533   -0.000006      6.00      15.9994
     105     2 O    8    0.902709    8.343336    1.486676      6.00      15.9994
     106     2 O    8    3.719825    5.526256    1.486524      6.00      15.9994
     107     2 O    8    6.032896    6.033176   -0.000005      6.00      15.9994
     108     2 O    8    7.836322    7.837426   -0.000006      6.00      15.9994
     109     2 O    8    5.525122    8.343534    1.486716      6.00      15.9994
     110     2 O    8    8.343589    5.527002    1.485772      6.00      15.9994
     111     2 O    8   10.655904    6.032903   -0.000006      6.00      15.9994
     112     2 O    8   12.459997    7.836996   -0.000008      6.00      15.9994
     113     2 O    8   10.146687    8.345205    1.486760      6.00      15.9994
     114     2 O    8   12.968206    5.523686    1.486760      6.00      15.9994
     115     2 O    8    1.409052   10.655051   -0.000008      6.00      15.9994
     116     2 O    8    3.213160   12.459160   -0.000006      6.00      15.9994
     117     2 O    8    0.900879   12.968393    1.486748      6.00      15.9994
     118     2 O    8    3.722393   10.146879    1.486749      6.00      15.9994
     119     2 O    8    6.032727   10.654645   -0.000006      6.00      15.9994
     120     2 O    8    7.836160   12.458873   -0.000005      6.00      15.9994
     121     2 O    8    5.525493   12.965078    1.485763      6.00      15.9994
     122     2 O    8    8.343960   10.148562    1.486736      6.00      15.9994
     123     2 O    8   10.655316   10.655544   -0.000006      6.00      15.9994
     124     2 O    8   12.459534   12.459744   -0.000006      6.00      15.9994
     125     2 O    8   10.149257   12.965823    1.486523      6.00      15.9994
     126     2 O    8   12.966337   10.148709    1.486676      6.00      15.9994
     127     2 O    8    1.407644    1.410280    2.973214      6.00      15.9994
     128     2 O    8    3.212176    3.213030    2.974354      6.00      15.9994
     129     2 O    8    0.901523    3.720583    4.464784      6.00      15.9994
     130     2 O    8    3.709922    0.898068    4.456310      6.00      15.9994
     131     2 O    8    6.029456    1.406452    2.964312      6.00      15.9994
     132     2 O    8    7.839715    3.216714    2.964323      6.00      15.9994
     133     2 O    8    5.520536    3.725644    4.460598      6.00      15.9994
     134     2 O    8    8.348651    0.897534    4.460594      6.00      15.9994
     135     2 O    8   10.656956    1.410090    2.974454      6.00      15.9994
     136     2 O    8   12.461561    3.212874    2.973174      6.00      15.9994
     137     2 O    8   10.159621    3.725265    4.456251      6.00      15.9994
     138     2 O    8   12.967878    0.902840    4.464638      6.00      15.9994
     139     2 O    8    1.409525    6.032238    2.974324      6.00      15.9994
     140     2 O    8    3.213829    7.836523    2.974378      6.00      15.9994
     141     2 O    8    0.902499    8.343480    4.463434      6.00      15.9994
     142     2 O    8    3.718277    5.527840    4.461969      6.00      15.9994
     143     2 O    8    6.033091    6.033955    2.974456      6.00      15.9994
     144     2 O    8    7.835875    7.838559    2.973174      6.00      15.9994
     145     2 O    8    5.525842    8.344878    4.464639      6.00      15.9994
     146     2 O    8    8.348265    5.536619    4.456252      6.00      15.9994
     147     2 O    8   10.657134    6.034132    2.972655      6.00      15.9994
     148     2 O    8   12.460175    7.837173    2.974036      6.00      15.9994
     149     2 O    8   10.146435    8.345522    4.464228      6.00      15.9994
     150     2 O    8   12.968525    5.523433    4.464228      6.00      15.9994
     151     2 O    8    1.408873   10.654872    2.974035      6.00      15.9994
     152     2 O    8    3.211990   12.457990    2.972619      6.00      15.9994
     153     2 O    8    0.900712   12.968775    4.464062      6.00      15.9994
     154     2 O    8    3.722777   10.146713    4.464064      6.00      15.9994
     155     2 O    8    6.033281   10.653640    2.973214      6.00      15.9994
     156     2 O    8    7.836031   12.458173    2.974357      6.00      15.9994
     157     2 O    8    5.521067   12.955907    4.456309      6.00      15.9994
     158     2 O    8    8.343584   10.147518    4.464785      6.00      15.9994
     159     2 O    8   10.655240   10.655524    2.974324      6.00      15.9994
     160     2 O    8   12.459525   12.459828    2.974377      6.00      15.9994
     161     2 O    8   10.150844   12.964276    4.461968      6.00      15.9994
     162     2 O    8   12.966483   10.148498    4.463433      6.00      15.9994
     163     2 O    8    1.409018    1.409474    5.959876      6.00      15.9994
     164     2 O    8    3.212676    3.212507    5.953793      6.00      15.9994
     165     2 O    8    0.904139    3.721476    7.453480      6.00      15.9994
     166     2 O    8    3.723682    0.905697    7.453493      6.00      15.9994
     167     2 O    8    5.997595    1.374556    5.881347      6.00      15.9994
     168     2 O    8    7.872129    3.249117    5.880998      6.00      15.9994
     169     2 O    8    5.504214    3.743242    7.453501      6.00      15.9994
     170     2 O    8    8.366251    0.881201    7.453501      6.00      15.9994
     171     2 O    8   10.656680    1.410678    5.953309      6.00      15.9994
     172     2 O    8   12.460238    3.213686    5.960494      6.00      15.9994
     173     2 O    8   10.145600    3.717550    7.453493      6.00      15.9994
     174     2 O    8   12.965301    0.901711    7.453480      6.00      15.9994
     175     2 O    8    1.408962    6.032790    5.956390      6.00      15.9994
     176     2 O    8    3.213485    7.837267    5.955603      6.00      15.9994
     177     2 O    8    0.902683    8.343928    7.453477      6.00      15.9994
     178     2 O    8    3.713577    5.533484    7.453476      6.00      15.9994
     179     2 O    8    6.033679    6.033678    5.953307      6.00      15.9994
     180     2 O    8    7.836689    7.837236    5.960500      6.00      15.9994
     181     2 O    8    5.524708    8.342295    7.453480      6.00      15.9994
     182     2 O    8    8.340548    5.522596    7.453493      6.00      15.9994
     183     2 O    8   10.660156    6.037153    5.955283      6.00      15.9994
     184     2 O    8   12.461278    7.838273    5.955090      6.00      15.9994
     185     2 O    8   10.147152    8.345301    7.453479      6.00      15.9994
     186     2 O    8   12.968306    5.524147    7.453479      6.00      15.9994
     187     2 O    8    1.407906   10.653905    5.954848      6.00      15.9994
     188     2 O    8    3.209034   12.455032    5.955335      6.00      15.9994
     189     2 O    8    0.900908   12.968098    7.453480      6.00      15.9994
     190     2 O    8    3.722097   10.146909    7.453480      6.00      15.9994
     191     2 O    8    6.032480   10.655010    5.959889      6.00      15.9994
     192     2 O    8    7.835512   12.458669    5.953786      6.00      15.9994
     193     2 O    8    5.528707   12.969677    7.453493      6.00      15.9994
     194     2 O    8    8.344485   10.150139    7.453480      6.00      15.9994
     195     2 O    8   10.655795   10.654957    5.956386      6.00      15.9994
     196     2 O    8   12.460269   12.459483    5.955605      6.00      15.9994
     197     2 O    8   10.156483   12.959567    7.453476      6.00      15.9994
     198     2 O    8   12.966927   10.148678    7.453477      6.00      15.9994
     199     2 O    8    1.409017    1.409474    8.947094      6.00      15.9994
     200     2 O    8    3.212672    3.212507    8.953186      6.00      15.9994
     201     2 O    8    0.901522    3.720585   10.442194      6.00      15.9994
     202     2 O    8    3.709922    0.898068   10.450681      6.00      15.9994
     203     2 O    8    5.997597    1.374558    9.025656      6.00      15.9994
     204     2 O    8    7.872127    3.249115    9.026005      6.00      15.9994
     205     2 O    8    5.520533    3.725648   10.446388      6.00      15.9994
     206     2 O    8    8.348654    0.897531   10.446392      6.00      15.9994
     207     2 O    8   10.656683    1.410678    8.953668      6.00      15.9994
     208     2 O    8   12.460240    3.213686    8.946477      6.00      15.9994
     209     2 O    8   10.159620    3.725265   10.450740      6.00      15.9994
     210     2 O    8   12.967879    0.902839   10.442340      6.00      15.9994
     211     2 O    8    1.408963    6.032791    8.950578      6.00      15.9994
     212     2 O    8    3.213484    7.837266    8.951369      6.00      15.9994
     213     2 O    8    0.902497    8.343482   10.443542      6.00      15.9994
     214     2 O    8    3.718278    5.527839   10.445010      6.00      15.9994
     215     2 O    8    6.033679    6.033682    8.953671      6.00      15.9994
     216     2 O    8    7.836689    7.837238    8.946471      6.00      15.9994
     217     2 O    8    5.525841    8.344879   10.442339      6.00      15.9994
     218     2 O    8    8.348265    5.536619   10.450738      6.00      15.9994
     219     2 O    8   10.660160    6.037157    8.951698      6.00      15.9994
     220     2 O    8   12.461277    7.838272    8.951871      6.00      15.9994
     221     2 O    8   10.146434    8.345524   10.442751      6.00      15.9994
     222     2 O    8   12.968527    5.523433   10.442751      6.00      15.9994
     223     2 O    8    1.407907   10.653906    8.952113      6.00      15.9994
     224     2 O    8    3.209030   12.455028    8.951647      6.00      15.9994
     225     2 O    8    0.900711   12.968776   10.442917      6.00      15.9994
     226     2 O    8    3.722778   10.146712   10.442915      6.00      15.9994
     227     2 O    8    6.032480   10.655009    8.947081      6.00      15.9994
     228     2 O    8    7.835512   12.458666    8.953193      6.00      15.9994
     229     2 O    8    5.521066   12.955907   10.450681      6.00      15.9994
     230     2 O    8    8.343585   10.147517   10.442193      6.00      15.9994
     231     2 O    8   10.655795   10.654958    8.950582      6.00      15.9994
     232     2 O    8   12.460267   12.459483    8.951367      6.00      15.9994
     233     2 O    8   10.150844   12.964277   10.445011      6.00      15.9994
     234     2 O    8   12.966484   10.148496   10.443543      6.00      15.9994
     235     2 O    8    1.407644    1.410281   11.933773      6.00      15.9994
     236     2 O    8    3.212174    3.213029   11.932633      6.00      15.9994
     237     2 O    8    0.902563    3.720959   13.420252      6.00      15.9994
     238     2 O    8    3.719080    0.902492   13.421227      6.00      15.9994
     239     2 O    8    6.029458    1.406454   11.942680      6.00      15.9994
     240     2 O    8    7.839713    3.216712   11.942669      6.00      15.9994
     241     2 O    8    5.522872    3.723191   13.420764      6.00      15.9994
     242     2 O    8    8.346192    0.899871   13.420764      6.00      15.9994
     243     2 O    8   10.656958    1.410091   11.932532      6.00      15.9994
     244     2 O    8   12.461561    3.212873   11.933813      6.00      15.9994
     245     2 O    8   10.150003    3.720589   13.421219      6.00      15.9994
     246     2 O    8   12.966535    0.902121   13.420271      6.00      15.9994
     247     2 O    8    1.409526    6.032239   11.932660      6.00      15.9994
     248     2 O    8    3.213828    7.836523   11.932607      6.00      15.9994
     249     2 O    8    0.902709    8.343337   13.420310      6.00      15.9994
     250     2 O    8    3.719824    5.526256   13.420462      6.00      15.9994
     251     2 O    8    6.033092    6.033957   11.932529      6.00      15.9994
     252     2 O    8    7.835875    7.838559   11.933813      6.00      15.9994
     253     2 O    8    5.525121    8.343534   13.420271      6.00      15.9994
     254     2 O    8    8.343589    5.527002   13.421219      6.00      15.9994
     255     2 O    8   10.657136    6.034134   11.934331      6.00      15.9994
     256     2 O    8   12.460175    7.837172   11.932945      6.00      15.9994
     257     2 O    8   10.146686    8.345205   13.420227      6.00      15.9994
     258     2 O    8   12.968207    5.523685   13.420227      6.00      15.9994
     259     2 O    8    1.408874   10.654873   11.932945      6.00      15.9994
     260     2 O    8    3.211987   12.457987   11.934367      6.00      15.9994
     261     2 O    8    0.900879   12.968394   13.420238      6.00      15.9994
     262     2 O    8    3.722394   10.146878   13.420238      6.00      15.9994
     263     2 O    8    6.033282   10.653640   11.933773      6.00      15.9994
     264     2 O    8    7.836030   12.458172   11.932630      6.00      15.9994
     265     2 O    8    5.525493   12.965078   13.421227      6.00      15.9994
     266     2 O    8    8.343960   10.148562   13.420251      6.00      15.9994
     267     2 O    8   10.655240   10.655524   11.932661      6.00      15.9994
     268     2 O    8   12.459524   12.459828   11.932608      6.00      15.9994
     269     2 O    8   10.149257   12.965823   13.420463      6.00      15.9994
     270     2 O    8   12.966337   10.148708   13.420310      6.00      15.9994




 SCF PARAMETERS         Density guess:                                   RESTART
                        --------------------------------------------------------
                        max_scf:                                             500
                        max_scf_history:                                       0
                        max_diis:                                              4
                        --------------------------------------------------------
                        eps_scf:                                        1.00E-05
                        eps_scf_history:                                0.00E+00
                        eps_diis:                                       5.00E-01
                        eps_eigval:                                     1.00E-05
                        --------------------------------------------------------
                        level_shift [a.u.]:                                 0.00
                        --------------------------------------------------------
                        Mixing method:                            BROYDEN_MIXING
                                                charge density mixing in g-space
                        --------------------------------------------------------
                        Outer loop SCF in use 
                        No variables optimised in outer loop
                        eps_scf                                         1.00E-05
                        max_scf                                              500
                        No outer loop optimization
                        step_size                                       5.00E-01

 PW_GRID| Information for grid number                                          1
 PW_GRID| Grid distributed over                                    40 processors
 PW_GRID| Real space group dimensions                                    40    1
 PW_GRID| the grid is blocked:                                                NO
 PW_GRID| Cutoff [a.u.]                                                    325.0
 PW_GRID| spherical cutoff:                                                   NO
 PW_GRID|   Bounds   1           -108     107                Points:         216
 PW_GRID|   Bounds   2           -108     107                Points:         216
 PW_GRID|   Bounds   3           -115     115                Points:         231
 PW_GRID| Volume element (a.u.^3)  0.1795E-02     Volume (a.u.^3)     19349.8300
 PW_GRID| Grid span                                                    FULLSPACE
 PW_GRID|   Distribution                         Average         Max         Min
 PW_GRID|   G-Vectors                           269438.4      269568      269352
 PW_GRID|   G-Rays                                1247.4        1248        1247
 PW_GRID|   Real Space Points                   269438.4      299376      249480

 PW_GRID| Information for grid number                                          2
 PW_GRID| Grid distributed over                                    40 processors
 PW_GRID| Real space group dimensions                                    40    1
 PW_GRID| the grid is blocked:                                                NO
 PW_GRID| Cutoff [a.u.]                                                    108.3
 PW_GRID| spherical cutoff:                                                   NO
 PW_GRID|   Bounds   1            -63      62                Points:         126
 PW_GRID|   Bounds   2            -63      62                Points:         126
 PW_GRID|   Bounds   3            -66      65                Points:         132
 PW_GRID| Volume element (a.u.^3)  0.9233E-02     Volume (a.u.^3)     19349.8300
 PW_GRID| Grid span                                                    FULLSPACE
 PW_GRID|   Distribution                         Average         Max         Min
 PW_GRID|   G-Vectors                            52390.8       52794       52290
 PW_GRID|   G-Rays                                 415.8         419         415
 PW_GRID|   Real Space Points                    52390.8       66528       49896

 PW_GRID| Information for grid number                                          3
 PW_GRID| Grid distributed over                                    40 processors
 PW_GRID| Real space group dimensions                                    40    1
 PW_GRID| the grid is blocked:                                                NO
 PW_GRID| Cutoff [a.u.]                                                     36.1
 PW_GRID| spherical cutoff:                                                   NO
 PW_GRID|   Bounds   1            -36      35                Points:          72
 PW_GRID|   Bounds   2            -36      35                Points:          72
 PW_GRID|   Bounds   3            -38      38                Points:          77
 PW_GRID| Volume element (a.u.^3)  0.4848E-01     Volume (a.u.^3)     19349.8300
 PW_GRID| Grid span                                                    FULLSPACE
 PW_GRID|   Distribution                         Average         Max         Min
 PW_GRID|   G-Vectors                             9979.2       10008        9936
 PW_GRID|   G-Rays                                 138.6         139         138
 PW_GRID|   Real Space Points                     9979.2       11088        5544

 PW_GRID| Information for grid number                                          4
 PW_GRID| Grid distributed over                                    40 processors
 PW_GRID| Real space group dimensions                                    40    1
 PW_GRID| the grid is blocked:                                                NO
 PW_GRID| Cutoff [a.u.]                                                     12.0
 PW_GRID| spherical cutoff:                                                   NO
 PW_GRID|   Bounds   1            -21      20                Points:          42
 PW_GRID|   Bounds   2            -21      20                Points:          42
 PW_GRID|   Bounds   3            -22      21                Points:          44
 PW_GRID| Volume element (a.u.^3)  0.2493         Volume (a.u.^3)     19349.8300
 PW_GRID| Grid span                                                    FULLSPACE
 PW_GRID|   Distribution                         Average         Max         Min
 PW_GRID|   G-Vectors                             1940.4        2058        1848
 PW_GRID|   G-Rays                                  46.2          49          44
 PW_GRID|   Real Space Points                     1940.4        3696        1848

 PW_GRID| Information for grid number                                          5
 PW_GRID| Grid distributed over                                    40 processors
 PW_GRID| Real space group dimensions                                     5    8
 PW_GRID| the grid is blocked:                                                NO
 PW_GRID| Cutoff [a.u.]                                                      4.0
 PW_GRID| spherical cutoff:                                                   NO
 PW_GRID|   Bounds   1            -12      11                Points:          24
 PW_GRID|   Bounds   2            -12      11                Points:          24
 PW_GRID|   Bounds   3            -12      12                Points:          25
 PW_GRID| Volume element (a.u.^3)   1.344         Volume (a.u.^3)     19349.8300
 PW_GRID| Grid span                                                    FULLSPACE
 PW_GRID|   Distribution                         Average         Max         Min
 PW_GRID|   G-Vectors                              360.0         408         336
 PW_GRID|   G-Rays                                  15.0          17          14
 PW_GRID|   Real Space Points                      360.0         375         300

 PW_GRID| Information for grid number                                          6
 PW_GRID| Grid distributed over                                    40 processors
 PW_GRID| Real space group dimensions                                     5    8
 PW_GRID| the grid is blocked:                                                NO
 PW_GRID| Cutoff [a.u.]                                                      1.3
 PW_GRID| spherical cutoff:                                                   NO
 PW_GRID|   Bounds   1             -7       6                Points:          14
 PW_GRID|   Bounds   2             -7       6                Points:          14
 PW_GRID|   Bounds   3             -7       7                Points:          15
 PW_GRID| Volume element (a.u.^3)   6.582         Volume (a.u.^3)     19349.8300
 PW_GRID| Grid span                                                    FULLSPACE
 PW_GRID|   Distribution                         Average         Max         Min
 PW_GRID|   G-Vectors                               73.5          98          56
 PW_GRID|   G-Rays                                   5.2           7           4
 PW_GRID|   Real Space Points                       73.5          90          30

 PW_GRID| Information for grid number                                          7
 PW_GRID| Grid distributed over                                    40 processors
 PW_GRID| Real space group dimensions                                     5    8
 PW_GRID| the grid is blocked:                                                NO
 PW_GRID| Cutoff [a.u.]                                                      0.4
 PW_GRID| spherical cutoff:                                                   NO
 PW_GRID|   Bounds   1             -3       3                Points:           7
 PW_GRID|   Bounds   2             -3       3                Points:           7
 PW_GRID|   Bounds   3             -4       4                Points:           9
 PW_GRID| Volume element (a.u.^3)   43.88         Volume (a.u.^3)     19349.8300
 PW_GRID| Grid span                                                    FULLSPACE
 PW_GRID|   Distribution                         Average         Max         Min
 PW_GRID|   G-Vectors                               11.0          28           0
 PW_GRID|   G-Rays                                   1.6           4           0
 PW_GRID|   Real Space Points                       11.0          18           0

 PW_GRID| Information for grid number                                          8
 PW_GRID| Grid distributed over                                    40 processors
 PW_GRID| Real space group dimensions                                     5    8
 PW_GRID| the grid is blocked:                                                NO
 PW_GRID| Cutoff [a.u.]                                                      0.1
 PW_GRID| spherical cutoff:                                                   NO
 PW_GRID|   Bounds   1             -2       2                Points:           5
 PW_GRID|   Bounds   2             -2       2                Points:           5
 PW_GRID|   Bounds   3             -2       2                Points:           5
 PW_GRID| Volume element (a.u.^3)   154.8         Volume (a.u.^3)     19349.8300
 PW_GRID| Grid span                                                    FULLSPACE
 PW_GRID|   Distribution                         Average         Max         Min
 PW_GRID|   G-Vectors                                3.1          10           0
 PW_GRID|   G-Rays                                   0.6           2           0
 PW_GRID|   Real Space Points                        3.1           5           0

 PW_GRID| Information for grid number                                          9
 PW_GRID| Grid distributed over                                    40 processors
 PW_GRID| Real space group dimensions                                     5    8
 PW_GRID| the grid is blocked:                                                NO
 PW_GRID| Cutoff [a.u.]                                                      0.0
 PW_GRID| spherical cutoff:                                                   NO
 PW_GRID|   Bounds   1             -1       1                Points:           3
 PW_GRID|   Bounds   2             -1       1                Points:           3
 PW_GRID|   Bounds   3             -1       1                Points:           3
 PW_GRID| Volume element (a.u.^3)   716.7         Volume (a.u.^3)     19349.8300
 PW_GRID| Grid span                                                    FULLSPACE
 PW_GRID|   Distribution                         Average         Max         Min
 PW_GRID|   G-Vectors                                0.7           3           0
 PW_GRID|   G-Rays                                   0.2           1           0
 PW_GRID|   Real Space Points                        0.7           3           0

 PW_GRID| Information for grid number                                         10
 PW_GRID| Grid distributed over                                    40 processors
 PW_GRID| Real space group dimensions                                     5    8
 PW_GRID| the grid is blocked:                                                NO
 PW_GRID| Cutoff [a.u.]                                                      0.0
 PW_GRID| spherical cutoff:                                                   NO
 PW_GRID|   Bounds   1              0       0                Points:           1
 PW_GRID|   Bounds   2              0       0                Points:           1
 PW_GRID|   Bounds   3              0       0                Points:           1
 PW_GRID| Volume element (a.u.^3)  0.1935E+05     Volume (a.u.^3)     19349.8300
 PW_GRID| Grid span                                                    FULLSPACE
 PW_GRID|   Distribution                         Average         Max         Min
 PW_GRID|   G-Vectors                                0.0           1           0
 PW_GRID|   G-Rays                                   0.0           1           0
 PW_GRID|   Real Space Points                        0.0           1           0

 POISSON| Solver                                                        PERIODIC
 POISSON| Periodicity                                                        XYZ

 RS_GRID| Information for grid number                                          1
 RS_GRID|   Bounds   1           -108     107                Points:         216
 RS_GRID|   Bounds   2           -108     107                Points:         216
 RS_GRID|   Bounds   3           -115     115                Points:         231
 RS_GRID| Real space distribution over                                  5 groups
 RS_GRID| Real space distribution along direction                              2
 RS_GRID| Border size                                                         27
 RS_GRID| Real space distribution over                                  8 groups
 RS_GRID| Real space distribution along direction                              3
 RS_GRID| Border size                                                         27
 RS_GRID|   Distribution                         Average         Max         Min
 RS_GRID|   Planes                                  97.2          98          97
 RS_GRID|   Distribution                         Average         Max         Min
 RS_GRID|   Planes                                  82.9          83          82

 RS_GRID| Information for grid number                                          2
 RS_GRID|   Bounds   1            -63      62                Points:         126
 RS_GRID|   Bounds   2            -63      62                Points:         126
 RS_GRID|   Bounds   3            -66      65                Points:         132
 RS_GRID| Real space distribution over                                  5 groups
 RS_GRID| Real space distribution along direction                              2
 RS_GRID| Border size                                                         26
 RS_GRID| Real space distribution over                                  8 groups
 RS_GRID| Real space distribution along direction                              3
 RS_GRID| Border size                                                         26
 RS_GRID|   Distribution                         Average         Max         Min
 RS_GRID|   Planes                                  77.2          78          77
 RS_GRID|   Distribution                         Average         Max         Min
 RS_GRID|   Planes                                  68.5          69          68

 RS_GRID| Information for grid number                                          3
 RS_GRID|   Bounds   1            -36      35                Points:          72
 RS_GRID|   Bounds   2            -36      35                Points:          72
 RS_GRID|   Bounds   3            -38      38                Points:          77
 RS_GRID| Real space fully replicated
 RS_GRID| Group size                                                           1

 RS_GRID| Information for grid number                                          4
 RS_GRID|   Bounds   1            -21      20                Points:          42
 RS_GRID|   Bounds   2            -21      20                Points:          42
 RS_GRID|   Bounds   3            -22      21                Points:          44
 RS_GRID| Real space fully replicated
 RS_GRID| Group size                                                           1

 RS_GRID| Information for grid number                                          5
 RS_GRID|   Bounds   1            -12      11                Points:          24
 RS_GRID|   Bounds   2            -12      11                Points:          24
 RS_GRID|   Bounds   3            -12      12                Points:          25
 RS_GRID| Real space fully replicated
 RS_GRID| Group size                                                           1

 RS_GRID| Information for grid number                                          6
 RS_GRID|   Bounds   1             -7       6                Points:          14
 RS_GRID|   Bounds   2             -7       6                Points:          14
 RS_GRID|   Bounds   3             -7       7                Points:          15
 RS_GRID| Real space fully replicated
 RS_GRID| Group size                                                           1

 RS_GRID| Information for grid number                                          7
 RS_GRID|   Bounds   1             -3       3                Points:           7
 RS_GRID|   Bounds   2             -3       3                Points:           7
 RS_GRID|   Bounds   3             -4       4                Points:           9
 RS_GRID| Real space fully replicated
 RS_GRID| Group size                                                           1

 RS_GRID| Information for grid number                                          8
 RS_GRID|   Bounds   1             -2       2                Points:           5
 RS_GRID|   Bounds   2             -2       2                Points:           5
 RS_GRID|   Bounds   3             -2       2                Points:           5
 RS_GRID| Real space fully replicated
 RS_GRID| Group size                                                           1

 RS_GRID| Information for grid number                                          9
 RS_GRID|   Bounds   1             -1       1                Points:           3
 RS_GRID|   Bounds   2             -1       1                Points:           3
 RS_GRID|   Bounds   3             -1       1                Points:           3
 RS_GRID| Real space fully replicated
 RS_GRID| Group size                                                           1

 RS_GRID| Information for grid number                                         10
 RS_GRID|   Bounds   1              0       0                Points:           1
 RS_GRID|   Bounds   2              0       0                Points:           1
 RS_GRID|   Bounds   3              0       0                Points:           1
 RS_GRID| Real space fully replicated
 RS_GRID| Group size                                                           1

 Spin 1

 Number of electrons:                                                       1081
 Number of occupied orbitals:                                               1081
 Number of molecular orbitals:                                              1081

 Spin 2

 Number of electrons:                                                       1080
 Number of occupied orbitals:                                               1080
 Number of molecular orbitals:                                              1080

 Number of orbital functions:                                               1620
 Number of independent orbital functions:                                   1620

 Extrapolation method: initial_guess


 SCF WAVEFUNCTION OPTIMIZATION

  Step     Update method      Time    Convergence         Total energy    Change
  ------------------------------------------------------------------------------
     1 NoMix/Diag. 0.40E+00    6.0     0.02951519     -8111.7064790903 -8.11E+03
     2 Broy./Diag. 0.40E+00    9.8     0.02751557     -8111.6920981823  1.44E-02
     3 Broy./Diag. 0.40E+00    9.7     0.00866570     -8111.7525245564 -6.04E-02
     4 Broy./Diag. 0.40E+00    9.7     0.00636759     -8111.7708152670 -1.83E-02
     5 Broy./Diag. 0.40E+00    9.7     0.00096356     -8111.7656319504  5.18E-03
     6 Broy./Diag. 0.40E+00   10.1     0.00353159     -8111.7444831095  2.11E-02
     7 Broy./Diag. 0.40E+00    9.7     0.00037456     -8111.7388255788  5.66E-03
     8 Broy./Diag. 0.40E+00    9.8     0.00189359     -8111.7380506107  7.75E-04
     9 Broy./Diag. 0.40E+00    9.8     0.00026230     -8111.7369238457  1.13E-03
    10 Broy./Diag. 0.40E+00    9.7     0.00128686     -8111.7362049820  7.19E-04
    11 Broy./Diag. 0.40E+00    9.8     0.00013349     -8111.7359311384  2.74E-04
    12 Broy./Diag. 0.40E+00    9.8     0.00091097     -8111.7366261479 -6.95E-04
    13 Broy./Diag. 0.40E+00    9.8     0.00009679     -8111.7372824448 -6.56E-04
    14 Broy./Diag. 0.40E+00    9.8     0.00040993     -8111.7371918689  9.06E-05
    15 Broy./Diag. 0.40E+00    9.9     0.00015663     -8111.7371483905  4.35E-05
    16 Broy./Diag. 0.40E+00    9.7     0.00006338     -8111.7373292108 -1.81E-04
    17 Broy./Diag. 0.40E+00    9.8     0.00004223     -8111.7374471954 -1.18E-04
    18 Broy./Diag. 0.40E+00    9.9     0.00001011     -8111.7374308748  1.63E-05
    19 Broy./Diag. 0.40E+00    9.7     0.00000741     -8111.7374240455  6.83E-06

  *** SCF run converged in    19 steps ***


  Electronic density on regular grids:      -2160.9999999994        0.0000000006
  Core density on regular grids:             2159.9999999994       -0.0000000006
  Total charge density on r-space grids:       -1.0000000000
  Total charge density g-space grids:          -1.0000000000

  Overlap energy of the core charge distribution:               0.00000000000205
  Self energy of the core charge distribution:             -17095.63438313942970
  Core Hamiltonian energy:                                   4650.90679942587303
  Hartree energy:                                            5621.15519587947892
  Exchange-correlation energy:                              -1307.31300975613203

  DFT+U energy:                                                19.14797354472167

  Total energy:                                             -8111.73742404548375

  outer SCF iter =    1 RMS gradient =   0.74E-05 energy =      -8111.7374240455
  outer SCF loop converged in   1 iterations or   19 steps


  Integrated absolute spin density  :                               1.0832585574
  Ideal and single determinant S**2 :                    0.750000       0.754231

 !-----------------------------------------------------------------------------!
                     Mulliken Population Analysis

 #  Atom  Element  Kind  Atomic population (alpha,beta) Net charge  Spin moment
       1     Ti       1         5.244693     5.244696     1.510611    -0.000003
       2     Ti       1         5.244723     5.244724     1.510553    -0.000000
       3     Ti       1         5.245059     5.245286     1.509656    -0.000227
       4     Ti       1         5.245469     5.244933     1.509598     0.000536
       5     Ti       1         5.244867     5.244914     1.510219    -0.000046
       6     Ti       1         5.244732     5.244733     1.510535    -0.000000
       7     Ti       1         5.244683     5.244687     1.510630    -0.000003
       8     Ti       1         5.244838     5.244853     1.510309    -0.000014
       9     Ti       1         5.244867     5.244913     1.510219    -0.000046
      10     Ti       1         5.244732     5.244733     1.510535    -0.000000
      11     Ti       1         5.245058     5.245285     1.509657    -0.000227
      12     Ti       1         5.245361     5.245374     1.509265    -0.000013
      13     Ti       1         5.245143     5.245126     1.509732     0.000017
      14     Ti       1         5.245366     5.245379     1.509255    -0.000013
      15     Ti       1         5.244693     5.244696     1.510611    -0.000003
      16     Ti       1         5.244723     5.244724     1.510553    -0.000000
      17     Ti       1         5.244684     5.244687     1.510630    -0.000003
      18     Ti       1         5.244838     5.244853     1.510309    -0.000014
      19     Ti       1         5.244834     5.244840     1.510326    -0.000006
      20     Ti       1         5.245100     5.245097     1.509804     0.000003
      21     Ti       1         5.244912     5.244905     1.510183     0.000007
      22     Ti       1         5.247513     5.246516     1.505971     0.000997
      23     Ti       1         5.244638     5.244642     1.510720    -0.000004
      24     Ti       1         5.245095     5.245092     1.509813     0.000003
      25     Ti       1         5.244844     5.244850     1.510306    -0.000006
      26     Ti       1         5.244682     5.244699     1.510619    -0.000017
      27     Ti       1         5.244638     5.244642     1.510720    -0.000004
      28     Ti       1         5.245095     5.245092     1.509813     0.000003
      29     Ti       1         5.244916     5.244909     1.510175     0.000007
      30     Ti       1         5.245203     5.245195     1.509602     0.000008
      31     Ti       1         5.245060     5.245070     1.509870    -0.000010
      32     Ti       1         5.245208     5.245200     1.509591     0.000008
      33     Ti       1         5.244834     5.244840     1.510326    -0.000006
      34     Ti       1         5.245100     5.245097     1.509804     0.000003
      35     Ti       1         5.244844     5.244850     1.510306    -0.000006
      36     Ti       1         5.244682     5.244699     1.510619    -0.000017
      37     Ti       1         5.245023     5.245020     1.509956     0.000003
      38     Ti       1         5.246094     5.246090     1.507817     0.000004
      39     Ti       1         5.245474     5.245354     1.509172     0.000120
      40     Ti       1         5.254215     5.256398     1.489387    -0.002183
      41     Ti       1         5.246782     5.246807     1.506411    -0.000025
      42     Ti       1         5.246069     5.246065     1.507866     0.000004
      43     Ti       1         5.245022     5.245019     1.509959     0.000003
      44     Ti       1         5.244617     5.244582     1.510801     0.000035
      45     Ti       1         5.246783     5.246808     1.506410    -0.000025
      46     Ti       1         5.246069     5.246065     1.507866     0.000004
      47     Ti       1         5.245483     5.245361     1.509156     0.000122
      48     Ti       1         5.246342     5.245986     1.507672     0.000356
      49     Ti       1         5.245068     5.245043     1.509888     0.000025
      50     Ti       1         5.246350     5.245992     1.507658     0.000357
      51     Ti       1         5.245024     5.245020     1.509956     0.000003
      52     Ti       1         5.246094     5.246090     1.507817     0.000004
      53     Ti       1         5.245022     5.245019     1.509960     0.000003
      54     Ti       1         5.244617     5.244582     1.510801     0.000035
      55     Ti       1         5.244807     5.244803     1.510389     0.000004
      56     Ti       1         5.243829     5.243859     1.512311    -0.000030
      57     Ti       1         5.249958     5.242678     1.507364     0.007281
      58     Ti       1         5.779972     4.801222     1.418805     0.978750
      59     Ti       1         5.247568     5.245730     1.506701     0.001838
      60     Ti       1         5.243827     5.243857     1.512317    -0.000030
      61     Ti       1         5.244805     5.244801     1.510394     0.000004
      62     Ti       1         5.244876     5.244654     1.510470     0.000221
      63     Ti       1         5.247569     5.245731     1.506700     0.001838
      64     Ti       1         5.243827     5.243857     1.512316    -0.000030
      65     Ti       1         5.249961     5.242687     1.507352     0.007274
      66     Ti       1         5.246088     5.244674     1.509238     0.001414
      67     Ti       1         5.245334     5.244925     1.509741     0.000409
      68     Ti       1         5.246094     5.244679     1.509227     0.001415
      69     Ti       1         5.244807     5.244803     1.510389     0.000004
      70     Ti       1         5.243829     5.243859     1.512312    -0.000030
      71     Ti       1         5.244805     5.244801     1.510394     0.000004
      72     Ti       1         5.244876     5.244654     1.510470     0.000221
      73     Ti       1         5.244562     5.244546     1.510891     0.000016
      74     Ti       1         5.244344     5.244358     1.511298    -0.000015
      75     Ti       1         5.248697     5.243844     1.507458     0.004853
      76     Ti       1         5.244994     5.245516     1.509489    -0.000522
      77     Ti       1         5.245236     5.243559     1.511204     0.001677
      78     Ti       1         5.244353     5.244367     1.511280    -0.000015
      79     Ti       1         5.244572     5.244556     1.510872     0.000016
      80     Ti       1         5.244941     5.244883     1.510176     0.000057
      81     Ti       1         5.245236     5.243559     1.511204     0.001677
      82     Ti       1         5.244353     5.244367     1.511280    -0.000015
      83     Ti       1         5.248701     5.243843     1.507456     0.004858
      84     Ti       1         5.245563     5.245306     1.509131     0.000256
      85     Ti       1         5.245339     5.244963     1.509699     0.000376
      86     Ti       1         5.245568     5.245312     1.509121     0.000256
      87     Ti       1         5.244562     5.244546     1.510891     0.000016
      88     Ti       1         5.244344     5.244358     1.511298    -0.000015
      89     Ti       1         5.244572     5.244556     1.510871     0.000016
      90     Ti       1         5.244941     5.244883     1.510176     0.000057
      91     O        2         3.379737     3.379756    -0.759493    -0.000019
      92     O        2         3.379521     3.379528    -0.759049    -0.000007
      93     O        2         3.379764     3.379765    -0.759529    -0.000002
      94     O        2         3.379907     3.379902    -0.759808     0.000005
      95     O        2         3.381496     3.381641    -0.763137    -0.000145
      96     O        2         3.381497     3.381643    -0.763140    -0.000146
      97     O        2         3.379631     3.379673    -0.759304    -0.000042
      98     O        2         3.379631     3.379674    -0.759305    -0.000042
      99     O        2         3.379511     3.379518    -0.759029    -0.000007
     100     O        2         3.379723     3.379742    -0.759465    -0.000019
[...]
       0.23735818       0.23756250       0.23824596       0.23827859
       0.23859894       0.23861228       0.23864662       0.23894235
       0.23952965       0.23985210       0.23997117       0.24003069
       0.24082942       0.24103820       0.24151725       0.24181539
       0.24185498       0.24194400       0.24197589       0.24242867
       0.24255431       0.24305635       0.24355489       0.24373033
       0.24378374       0.24423122       0.24452744       0.24458878
       0.24530685       0.24534407       0.24562432       0.24573823
       0.24588784       0.24648014       0.24651664       0.24657678
       0.24710929       0.24732087       0.24734008       0.24752577
       0.24951433       0.25176739       0.25187280       0.25189255
       0.25197525       0.25218081       0.25241295       0.25264494
       0.25272518       0.25296580       0.25315585       0.25335061
       0.25336461       0.25359411       0.25363602       0.25372909
       0.25407124       0.25453647       0.25483596       0.25515108
       0.25562864       0.25581123       0.25605307       0.25618929
       0.25663290       0.25677841       0.25707993       0.25730993
       0.25786557       0.25851003       0.25858359       0.25925541
       0.25926918       0.25987576       0.26097006       0.26099265
       0.26109979       0.26114595       0.26168561       0.26181197
       0.26194662       0.26194836       0.26212172       0.26215981
       0.26238758       0.26239399       0.26263061       0.26280938
       0.26288893       0.26297127       0.26337249       0.26346017
       0.26384812       0.26405654       0.26421143       0.26446554
       0.26447524       0.26480323       0.26489428       0.26537993
       0.26570808       0.26622140       0.26631605       0.26635963
       0.26660225       0.26686722       0.26699244       0.26765019
       0.26796548       0.26834234       0.26968484       0.27105629
       0.27342233       0.27370752       0.27401374       0.27426124
       0.27451342       0.27454566       0.27461581       0.27523583
       0.27751973       0.27772035       0.27825177       0.27896826
       0.27946768       0.27957615       0.27972757       0.28019854
       0.28033176       0.28044939       0.28093252       0.28095289
       0.28138412       0.28148034       0.28149096       0.28156763
       0.28157692       0.28169109       0.28179433       0.28205793
       0.28222704       0.28252135       0.28259448       0.28269318
       0.28296383       0.28317467       0.28323216       0.28366486
       0.28378068       0.28405496       0.28414306       0.28430937
       0.28442793       0.28487535       0.28502892       0.28502989
       0.28541068       0.28544798       0.28550434       0.28559090
       0.28594590       0.28628487       0.28644119       0.28651488
       0.28662640       0.28725119       0.28785713       0.28843487
       0.28860486       0.28889236       0.28905695       0.28944508
       0.28978873       0.29080608       0.29154696       0.29176308
       0.29286475       0.29366624       0.29379884       0.29434526
       0.29441240       0.29449177       0.29470252       0.29485916
       0.29600777       0.29624699       0.29645171       0.29719807
       0.29827360       0.29844396       0.29847839       0.29938881
       0.30020403       0.30026152       0.30051976       0.30076597
       0.30082421       0.30086650       0.30101774       0.30125908
       0.30141805       0.30168708       0.30182768       0.30259838
       0.30299758       0.30357799       0.30449270       0.30450062
       0.30522497       0.30527058       0.30537843       0.30590312
       0.30633737       0.30730172       0.31021236       0.31029061
       0.31031216       0.31137764       0.31158018       0.31192952
       0.31206520       0.31211304       0.31325490       0.31468228
       0.31480101       0.31494151       0.31597271       0.31602650
       0.31657100       0.31741744       0.31759728       0.32033840
       0.32037664       0.32058637       0.32081323       0.32110160
       0.32141242       0.32174525       0.32299932       0.32609655
       0.32656113       0.32682700       0.32718523       0.32894610
       0.33006188       0.33153647       0.33420306       0.34266346
 Fermi Energy [eV] :    9.324347
  
  Lowest eigenvalues of the unoccupied subspace spin            1
 ---------------------------------------------

  
  Lowest eigenvalues of the unoccupied subspace spin            2
 ---------------------------------------------


 ENERGY| Total FORCE_EVAL ( QS ) energy (a.u.):            -8111.737424045483749


 -------------------------------------------------------------------------------
 -                                                                             -
 -                                DBCSR STATISTICS                             -
 -                                                                             -
 -------------------------------------------------------------------------------
 COUNTER                                    TOTAL       BLAS       SMM       ACC
 flops     4 x    25 x     4             25920000     100.0%      0.0%      0.0%
 flops    10 x    25 x     4             32400000     100.0%      0.0%      0.0%
 flops     4 x    25 x    10             32400000     100.0%      0.0%      0.0%
 flops    10 x    25 x    10             40500000     100.0%      0.0%      0.0%
 flops     4 x    24 x     4             49766400     100.0%      0.0%      0.0%
 flops    10 x    24 x     4             62208000     100.0%      0.0%      0.0%
 flops     4 x    24 x    10             62208000     100.0%      0.0%      0.0%
 flops    10 x    24 x    10             77760000     100.0%      0.0%      0.0%
 flops     4 x     4 x    56            583833600     100.0%      0.0%      0.0%
 flops     4 x     4 x    57            594259200     100.0%      0.0%      0.0%
 flops    10 x     4 x    56            725760000     100.0%      0.0%      0.0%
 flops     4 x    10 x    56            725760000     100.0%      0.0%      0.0%
 flops    10 x     4 x    57            738720000     100.0%      0.0%      0.0%
 flops     4 x    10 x    57            738720000     100.0%      0.0%      0.0%
 flops    10 x    10 x    56            917280000     100.0%      0.0%      0.0%
 flops    10 x    10 x    57            933660000     100.0%      0.0%      0.0%
 flops     4 x    32 x     4           3284582400     100.0%      0.0%      0.0%
 flops     4 x     4 x    32           4003430400     100.0%      0.0%      0.0%
 flops    10 x    32 x     4           4105728000     100.0%      0.0%      0.0%
 flops     4 x    32 x    10           4105728000     100.0%      0.0%      0.0%
 flops    10 x     4 x    32           4976640000     100.0%      0.0%      0.0%
 flops     4 x    10 x    32           4976640000     100.0%      0.0%      0.0%
 flops    10 x    32 x    10           5132160000     100.0%      0.0%      0.0%
 flops    10 x    10 x    32           6289920000     100.0%      0.0%      0.0%
 flops     4 x     4 x    64          17348198400     100.0%      0.0%      0.0%
 flops    10 x     4 x    64          21565440000     100.0%      0.0%      0.0%
 flops     4 x    10 x    64          21565440000     100.0%      0.0%      0.0%
 flops    10 x    10 x    64          27256320000     100.0%      0.0%      0.0%
 flops inhomo. stacks                           0       0.0%      0.0%      0.0%
 flops total                       130.951382E+09     100.0%      0.0%      0.0%
 flops max/rank                      3.512538E+09     100.0%      0.0%      0.0%
 matmuls inhomo. stacks                         0       0.0%      0.0%      0.0%
 matmuls total                           36703800     100.0%      0.0%      0.0%
 number of processed stacks                140960     100.0%      0.0%      0.0%
 average stack size                                   260.4       0.0       0.0
 marketing flops                   243.864404E+09
 -------------------------------------------------------------------------------
 # multiplications                             43
 max memory usage/rank             423.583744E+06
 # max total images/rank                        5
 # max 3D layers                                1
 # MPI messages exchanged                  108360
 MPI messages size (bytes):
  total size                        11.027262E+09
  min size                          40.960000E+03
  max size                         280.704000E+03
  average size                     101.765062E+03
 MPI breakdown and total messages size (bytes):
             size <=      128                   0                        0
       128 < size <=     8192                   0                        0
      8192 < size <=    32768                   0                        0
     32768 < size <=   131072               86040               6315006240
    131072 < size <=  4194304               22320               4712256000
   4194304 < size <= 16777216                   0                        0
  16777216 < size                               0                        0
 -------------------------------------------------------------------------------

 *** WARNING in dbcsr/mm/dbcsr_mm.F:268 :: Using a non-square number of ***
 *** MPI ranks might lead to poor performance.                          ***
 *** Used ranks: 40                                                     ***
 *** Suggested: 36 81                                                   ***

 -------------------------------------------------------------------------------

 MEMORY| Estimated peak process memory [MiB]                                 405

 -------------------------------------------------------------------------------
 ----                             MULTIGRID INFO                            ----
 -------------------------------------------------------------------------------
 count for grid        1:         884888          cutoff [a.u.]          325.00
 count for grid        2:         501832          cutoff [a.u.]          108.33
 count for grid        3:         797630          cutoff [a.u.]           36.11
 count for grid        4:        1053876          cutoff [a.u.]           12.04
 count for grid        5:         551068          cutoff [a.u.]            4.01
 count for grid        6:              0          cutoff [a.u.]            1.34
 count for grid        7:              0          cutoff [a.u.]            0.45
 count for grid        8:              0          cutoff [a.u.]            0.15
 count for grid        9:              0          cutoff [a.u.]            0.05
 count for grid       10:              0          cutoff [a.u.]            0.02
 total gridlevel count  :        3789294

 -------------------------------------------------------------------------------
 -                                                                             -
 -                         MESSAGE PASSING PERFORMANCE                         -
 -                                                                             -
 -------------------------------------------------------------------------------

 ROUTINE             CALLS      AVE VOLUME [Bytes]
 MP_Group               53
 MP_Bcast             2330                 168972.
 MP_Allreduce          957                   1001.
 MP_Sync               672
 MP_Alltoall          2300                3193994.
 MP_ISendRecv        24336                  15276.
 MP_Wait             37076
 MP_comm_split          38
 MP_ISend            14450                 129222.
 MP_IRecv            14388                 128958.
 MP_Recv                66                 414720.
 MP_Memory            6738
 -------------------------------------------------------------------------------


 -------------------------------------------------------------------------------
 -                                                                             -
 -                           R E F E R E N C E S                               -
 -                                                                             -
 -------------------------------------------------------------------------------
 
 CP2K version 6.1, the CP2K developers group (2018).
 CP2K is freely available from https://www.cp2k.org/ .

 Schuett, Ole; Messmer, Peter; Hutter, Juerg; VandeVondele, Joost. 
 Electronic Structure Calculations on Graphics Processing Units, John Wiley & Sons, Ltd, 173-190 (2016). 
 GPU-Accelerated Sparse Matrix-Matrix Multiplication for Linear Scaling Density Functional Theory.
 http://dx.doi.org/10.1002/9781118670712.ch8


 Borstnik, U; VandeVondele, J; Weber, V; Hutter, J. 
 PARALLEL COMPUTING, 40 (5-6), 47-58 (2014). 
 Sparse matrix multiplication: The distributed block-compressed sparse
 row library.
 http://dx.doi.org/10.1016/j.parco.2014.03.012


 Hutter, J; Iannuzzi, M; Schiffmann, F; VandeVondele, J. 
 WILEY INTERDISCIPLINARY REVIEWS-COMPUTATIONAL MOLECULAR SCIENCE, 4 (1), 15-25 (2014). 
 CP2K: atomistic simulations of condensed matter systems.
 http://dx.doi.org/10.1002/wcms.1159


 VandeVondele, J; Hutter, J. 
 JOURNAL OF CHEMICAL PHYSICS, 127 (11), 114105 (2007). 
 Gaussian basis sets for accurate calculations on molecular systems in
 gas and condensed phases.
 http://dx.doi.org/10.1063/1.2770708


 Krack, M. 
 THEORETICAL CHEMISTRY ACCOUNTS, 114 (1-3), 145-152 (2005). 
 Pseudopotentials for H to Kr optimized for gradient-corrected
 exchange-correlation functionals.
 http://dx.doi.org/10.1007/s00214-005-0655-y


 VandeVondele, J; Krack, M; Mohamed, F; Parrinello, M; Chassaing, T;
 Hutter, J. COMPUTER PHYSICS COMMUNICATIONS, 167 (2), 103-128 (2005). 
 QUICKSTEP: Fast and accurate density functional calculations using a
 mixed Gaussian and plane waves approach.
 http://dx.doi.org/10.1016/j.cpc.2004.12.014


 Frigo, M; Johnson, SG. 
 PROCEEDINGS OF THE IEEE, 93 (2), 216-231 (2005). 
 The design and implementation of FFTW3.
 http://dx.doi.org/10.1109/JPROC.2004.840301


 Hartwigsen, C; Goedecker, S; Hutter, J. 
 PHYSICAL REVIEW B, 58 (7), 3641-3662 (1998). 
 Relativistic separable dual-space Gaussian pseudopotentials from H to Rn.
 http://dx.doi.org/10.1103/PhysRevB.58.3641


 Dudarev, SL; Botton, GA; Savrasov, SY; Humphreys, CJ; Sutton, AP. 
 PHYSICAL REVIEW B, 57 (3), 1505-1509 (1998). 
 Electron-energy-loss spectra and the structural stability of
 nickel oxide: An LSDA+U study.
 http://dx.doi.org/10.1103/PhysRevB.57.1505


 Lippert, G; Hutter, J; Parrinello, M. 
 MOLECULAR PHYSICS, 92 (3), 477-487 (1997). 
 A hybrid Gaussian and plane wave density functional scheme.
 http://dx.doi.org/10.1080/002689797170220


 Dudarev, SL; Manh, DN; Sutton, AP. 
 PHILOSOPHICAL MAGAZINE B, 75 (5), 613-628 (1997). 
 Effect of Mott-Hubbard correlations on the electronic
 structure and structural stability of uranium dioxide.
 http://dx.doi.org/10.1080/13642819708202343


 Perdew, JP; Burke, K; Ernzerhof, M. 
 PHYSICAL REVIEW LETTERS, 77 (18), 3865-3868 (1996). 
 Generalized gradient approximation made simple.
 http://dx.doi.org/10.1103/PhysRevLett.77.3865


 Goedecker, S; Teter, M; Hutter, J. 
 PHYSICAL REVIEW B, 54 (3), 1703-1710 (1996). 
 Separable dual-space Gaussian pseudopotentials.
 http://dx.doi.org/10.1103/PhysRevB.54.1703


 -------------------------------------------------------------------------------
 -                                                                             -
 -                                T I M I N G                                  -
 -                                                                             -
 -------------------------------------------------------------------------------
 SUBROUTINE                       CALLS  ASD         SELF TIME        TOTAL TIME
                                MAXIMUM       AVERAGE  MAXIMUM  AVERAGE  MAXIMUM
 CP2K                                 1  1.0    0.030    0.033  199.864  199.864
 qs_energies                          1  2.0    0.000    0.000  199.560  199.562
 scf_env_do_scf                       1  3.0    0.000    0.000  185.983  186.233
 scf_env_do_scf_inner_loop           19  4.0    0.001    0.002  185.983  186.233
 qs_ks_update_qs_env                 19  5.0    0.001    0.001   93.916   93.982
 rebuild_ks_matrix                   19  6.0    0.000    0.000   93.905   93.971
 qs_ks_build_kohn_sham_matrix        19  7.0    0.201    0.268   93.904   93.971
 qs_rho_update_rho                   20  5.0    0.000    0.000   76.532   76.533
 calculate_rho_elec                  40  6.0   67.580   69.056   76.532   76.533
 sum_up_and_integrate                19  8.0    0.041    0.050   72.255   72.257
 integrate_v_rspace                  38  9.0   64.799   66.617   72.214   72.226
 pw_transfer                       1180  9.5    0.053    0.070   24.626   25.494
 fft_wrap_pw1pw2                   1142 10.5    0.008    0.010   24.488   25.383
 fft_wrap_pw1pw2_330                440 11.6    1.171    1.406   23.556   24.327
 fft3d_ps                          1142 12.5   10.793   12.127   20.479   22.084
 qs_vxc_create                       19  8.0    0.000    0.001   19.923   19.995
 xc_vxc_pw_create                    19  9.0    0.242    0.304   19.923   19.994
 qs_scf_new_mos                      19  5.0    0.001    0.001   15.098   15.228
 eigensolver                         38  6.0    0.002    0.004   14.122   14.130
 xc_rho_set_and_dset_create          19 10.0    0.116    0.140   10.526   11.541
 cp_fm_syevd                         38  7.0    0.000    0.000   11.243   11.265
 cp_fm_redistribute_end              38  8.0    3.386   11.127    3.403   11.141
 cp_fm_syevd_base                    38  8.0    7.694   11.008    7.694   11.008
 mp_alltoall_z22v                  1142 14.5    8.173   10.978    8.173   10.978
 density_rs2pw                       40  7.0    0.003    0.003    8.162    9.805
 rs_pw_transfer                     784  9.4    0.006    0.007    7.353    9.422
 qs_energies_init_hamiltonians        1  3.0    0.000    0.000    8.592    8.593
 build_core_hamiltonian_matrix        1  4.0    0.000    0.000    7.125    8.161
 yz_to_x                            313 13.1    0.469    0.535    4.648    6.308
 mp_waitany                        7352 11.4    4.098    6.237    4.098    6.237
 rs_pw_transfer_RS2PW_330            42  8.9    0.625    0.814    3.943    6.029
 x_to_yz                            361 13.9    0.984    1.165    4.973    5.799
 potential_pw2rs                     38 10.0    0.006    0.007    4.946    4.958
 build_core_ppnl                      1  5.0    4.353    4.735    4.353    4.735
 rs_distribute_matrix                78  8.5    0.183    0.215    2.690    4.555
 mp_alltoall_d11v                   460  9.1    2.641    4.536    2.641    4.536
 xc_functional_eval                  19 11.0    0.000    0.001    3.470    4.494
 pbe_lsd_eval                        19 12.0    3.470    4.494    3.470    4.494
 init_scf_run                         1  3.0    0.000    0.000    4.429    4.431
 scf_env_initial_rho_setup            1  4.0    0.000    0.000    4.404    4.404
 gspace_mixing                       18  5.0    0.049    0.054    4.175    4.175
 -------------------------------------------------------------------------------

 The number of warnings for this run is : 1
 
 -------------------------------------------------------------------------------
  **** **** ******  **  PROGRAM ENDED AT                 2019-08-04 08:54:36.159
 ***** ** ***  *** **   PROGRAM RAN ON            cpn-p28-06.cbls.ccr.buffalo.ed
 **    ****   ******    PROGRAM RAN BY                                  pavankum
 ***** **    ** ** **   PROGRAM PROCESS ID                                 13030
  **** **  *******  **  PROGRAM STOPPED IN /projects/academic/mdupuis2/pavan/VAB
                                           _calculation/results_for_paper/7.TiO2
                                           _pbe_plus_U10/state1_at_point0_geo
