 DBCSR| Multiplication driver                                               BLAS
 DBCSR| Multrec recursion limit                                              512
 DBCSR| Multiplication stack size                                           1000
 DBCSR| Maximum elements for images                                    UNLIMITED
 DBCSR| Multiplicative factor virtual images                                   1
 DBCSR| Multiplication size stacks                                             3
 DBCSR| Number of 3D layers                                               SINGLE
 DBCSR| Use MPI memory allocation                                              T
 DBCSR| Use RMA algorithm                                                      F
 DBCSR| Use Communication thread                                               T
 DBCSR| Communication thread load                                             87


  **** **** ******  **  PROGRAM STARTED AT               2020-04-22 07:51:34.380
 ***** ** ***  *** **   PROGRAM STARTED ON        cpn-u22-14.cbls.ccr.buffalo.ed
 **    ****   ******    PROGRAM STARTED BY                              pavankum
 ***** **    ** ** **   PROGRAM PROCESS ID                                168444
  **** **  *******  **  PROGRAM STARTED IN /projects/academic/mdupuis2/pavan/MOA
                                           /BVO/neutral

 CP2K| version string:                                          CP2K version 6.1
 CP2K| source code revision number:                                    svn:18464
 CP2K| cp2kflags: libint fftw3 libxc parallel mpi3 scalapack libderiv_max_am1=5 
 CP2K|            libint_max_am=6
 CP2K| is freely available from                            https://www.cp2k.org/
 CP2K| Program compiled at                          Fri Nov 30 14:17:09 EST 2018
 CP2K| Program compiled on                       srv-p22-12.cbls.ccr.buffalo.edu
 CP2K| Program compiled for                                                local
 CP2K| Data directory path    /projects/academic/mdupuis2/pavan/cp2k/cp2k-6.1/da
 CP2K| Input file name                                                 input.inp

 GLOBAL| Force Environment number                                              1
 GLOBAL| Basis set file name            /projects/academic/mdupuis2/pavan/BASIS_
 GLOBAL| Potential file name            /projects/academic/mdupuis2/pavan/POTENT
 GLOBAL| MM Potential file name                                     MM_POTENTIAL
 GLOBAL| Coordinate file name                            ./neutral_optimized.xyz
 GLOBAL| Method name                                                        CP2K
 GLOBAL| Project name                                                     p_bvo_
 GLOBAL| Preferred FFT library                                             FFTW3
 GLOBAL| Preferred diagonalization lib.                                       SL
 GLOBAL| Run type                                                         ENERGY
 GLOBAL| All-to-all communication in single precision                          F
 GLOBAL| FFTs using library dependent lengths                                  T
 GLOBAL| Global print level                                               MEDIUM
 GLOBAL| Total number of message passing processes                           128
 GLOBAL| Number of threads for this process                                    1
 GLOBAL| This output is from process                                           0
 GLOBAL| CPU model name :  Intel(R) Xeon(R) Gold 6130 CPU @ 2.10GHz

 MEMORY| system memory details [Kb]
 MEMORY|                        rank 0           min           max       average
 MEMORY| MemTotal            790968832     790968832     790968848     790968838
 MEMORY| MemFree             638512248     561164980     743769160     658803465
 MEMORY| Buffers                455776        455776        604832        527448
 MEMORY| Cached              141064576      35804136     218505012     120873229
 MEMORY| Slab                  1839616       1547632       1839616       1672146
 MEMORY| SReclaimable          1546316       1246652       1546316       1373373
 MEMORY| MemLikelyFree       781578916     781519876     781689792     781577515


 *** Fundamental physical constants (SI units) ***

 *** Literature: B. J. Mohr and B. N. Taylor,
 ***             CODATA recommended values of the fundamental physical
 ***             constants: 2006, Web Version 5.1
 ***             http://physics.nist.gov/constants

 Speed of light in vacuum [m/s]                             2.99792458000000E+08
 Magnetic constant or permeability of vacuum [N/A**2]       1.25663706143592E-06
 Electric constant or permittivity of vacuum [F/m]          8.85418781762039E-12
 Planck constant (h) [J*s]                                  6.62606896000000E-34
 Planck constant (h-bar) [J*s]                              1.05457162825177E-34
 Elementary charge [C]                                      1.60217648700000E-19
 Electron mass [kg]                                         9.10938215000000E-31
 Electron g factor [ ]                                     -2.00231930436220E+00
 Proton mass [kg]                                           1.67262163700000E-27
 Fine-structure constant                                    7.29735253760000E-03
 Rydberg constant [1/m]                                     1.09737315685270E+07
 Avogadro constant [1/mol]                                  6.02214179000000E+23
 Boltzmann constant [J/K]                                   1.38065040000000E-23
 Atomic mass unit [kg]                                      1.66053878200000E-27
 Bohr radius [m]                                            5.29177208590000E-11

 *** Conversion factors ***

 [u] -> [a.u.]                                              1.82288848426455E+03
 [Angstrom] -> [Bohr] = [a.u.]                              1.88972613288564E+00
 [a.u.] = [Bohr] -> [Angstrom]                              5.29177208590000E-01
 [a.u.] -> [s]                                              2.41888432650478E-17
 [a.u.] -> [fs]                                             2.41888432650478E-02
 [a.u.] -> [J]                                              4.35974393937059E-18
 [a.u.] -> [N]                                              8.23872205491840E-08
 [a.u.] -> [K]                                              3.15774647902944E+05
 [a.u.] -> [kJ/mol]                                         2.62549961709828E+03
 [a.u.] -> [kcal/mol]                                       6.27509468713739E+02
 [a.u.] -> [Pa]                                             2.94210107994716E+13
 [a.u.] -> [bar]                                            2.94210107994716E+08
 [a.u.] -> [atm]                                            2.90362800883016E+08
 [a.u.] -> [eV]                                             2.72113838565563E+01
 [a.u.] -> [Hz]                                             6.57968392072181E+15
 [a.u.] -> [1/cm] (wave numbers)                            2.19474631370540E+05
 [a.u./Bohr**2] -> [1/cm]                                   5.14048714338585E+03
 

 CELL_TOP| Volume [angstrom^3]:                                         2787.646
 CELL_TOP| Vector a [angstrom    15.587     0.000     0.000    |a| =      15.587
 CELL_TOP| Vector b [angstrom    -0.102    15.280     0.000    |b| =      15.281
 CELL_TOP| Vector c [angstrom     0.000     0.000    11.705    |c| =      11.705
 CELL_TOP| Angle (b,c), alpha [degree]:                                   90.000
 CELL_TOP| Angle (a,c), beta  [degree]:                                   90.000
 CELL_TOP| Angle (a,b), gamma [degree]:                                   90.383
 CELL_TOP| Numerically orthorhombic:                                          NO

 CELL| Volume [angstrom^3]:                                             2787.646
 CELL| Vector a [angstrom]:      15.587     0.000     0.000    |a| =      15.587
 CELL| Vector b [angstrom]:      -0.102    15.280     0.000    |b| =      15.281
 CELL| Vector c [angstrom]:       0.000     0.000    11.705    |c| =      11.705
 CELL| Angle (b,c), alpha [degree]:                                       90.000
 CELL| Angle (a,c), beta  [degree]:                                       90.000
 CELL| Angle (a,b), gamma [degree]:                                       90.383
 CELL| Numerically orthorhombic:                                              NO

 CELL_REF| Volume [angstrom^3]:                                         2787.646
 CELL_REF| Vector a [angstrom    15.587     0.000     0.000    |a| =      15.587
 CELL_REF| Vector b [angstrom    -0.102    15.280     0.000    |b| =      15.281
 CELL_REF| Vector c [angstrom     0.000     0.000    11.705    |c| =      11.705
 CELL_REF| Angle (b,c), alpha [degree]:                                   90.000
 CELL_REF| Angle (a,c), beta  [degree]:                                   90.000
 CELL_REF| Angle (a,b), gamma [degree]:                                   90.383
 CELL_REF| Numerically orthorhombic:                                          NO

 *******************************************************************************
 *******************************************************************************
 **                                                                           **
 **     #####                         ##              ##                      **
 **    ##   ##            ##          ##              ##                      **
 **   ##     ##                       ##            ######                    **
 **   ##     ##  ##   ##  ##   #####  ##  ##   ####   ##    #####    #####    **
 **   ##     ##  ##   ##  ##  ##      ## ##   ##      ##   ##   ##  ##   ##   **
 **   ##  ## ##  ##   ##  ##  ##      ####     ###    ##   ######   ######    **
 **    ##  ###   ##   ##  ##  ##      ## ##      ##   ##   ##       ##        **
 **     #######   #####   ##   #####  ##  ##  ####    ##    #####   ##        **
 **           ##                                                    ##        **
 **                                                                           **
 **                                                ... make the atoms dance   **
 **                                                                           **
 **            Copyright (C) by CP2K developers group (2000 - 2018)           **
 **                                                                           **
 *******************************************************************************

 DFT| Spin unrestricted (spin-polarized) Kohn-Sham calculation               UKS
 DFT| Multiplicity                                                             1
 DFT| Number of spin states                                                    2
 DFT| Charge                                                                   0
 DFT| Self-interaction correction (SIC)                                       NO
 DFT| Cutoffs: density                                              1.000000E-10
 DFT|          gradient                                             1.000000E-10
 DFT|          tau                                                  1.000000E-10
 DFT|          cutoff_smoothing_range                               0.000000E+00
 DFT| XC density smoothing                                                  NONE
 DFT| XC derivatives                                                          PW

 DFT+U| Method                                                          MULLIKEN
 DFT+U| Check atomic kind information for details
 FUNCTIONAL| ROUTINE=NEW
 FUNCTIONAL| PBE:
 FUNCTIONAL| J.P.Perdew, K.Burke, M.Ernzerhof, Phys. Rev. Letter, vol. 77, n 18,
 FUNCTIONAL|  pp. 3865-3868, (1996){spin polarized}                             

 QS| Method:                                                                 GPW
 QS| Density plane wave grid type                        NON-SPHERICAL FULLSPACE
 QS| Number of grid levels:                                                   10
 QS| Density cutoff [a.u.]:                                                325.0
 QS| Multi grid cutoff [a.u.]: 1) grid level                               325.0
 QS|                           2) grid level                               108.3
 QS|                           3) grid level                                36.1
 QS|                           4) grid level                                12.0
 QS|                           5) grid level                                 4.0
 QS|                           6) grid level                                 1.3
 QS|                           7) grid level                                 0.4
 QS|                           8) grid level                                 0.1
 QS|                           9) grid level                                 0.0
 QS|                          10) grid level                                 0.0
 QS| Grid level progression factor:                                          3.0
 QS| Relative density cutoff [a.u.]:                                        30.0
 QS| Consistent realspace mapping and integration 
 QS| Interaction thresholds: eps_pgf_orb:                                1.0E-12
 QS|                         eps_filter_matrix:                          0.0E+00
 QS|                         eps_core_charge:                            1.0E-14
 QS|                         eps_rho_gspace:                             1.0E-12
 QS|                         eps_rho_rspace:                             1.0E-12
 QS|                         eps_gvg_rspace:                             1.0E-06
 QS|                         eps_ppl:                                    1.0E-02
 QS|                         eps_ppnl:                                   1.0E-08


 ATOMIC KIND INFORMATION

  1. Atomic kind: Bi                                    Number of atoms:      36

     Orbital Basis Set                                      SZV-MOLOPT-SR-GTH-q5

       Number of orbital shell sets:                                           1
       Number of orbital shells:                                               2
       Number of primitive Cartesian functions:                                5
       Number of Cartesian basis functions:                                    4
       Number of spherical basis functions:                                    4
       Norm type:                                                              2

       Normalised Cartesian orbitals:

                        Set   Shell   Orbital            Exponent    Coefficient

                          1       1    2s                1.666928      -0.653332
                                                         1.317942       0.913949
                                                         0.222221      -0.237783
                                                         0.074524      -0.045176
                                                         0.066725       0.021473

                          1       2    3px               1.666928      -0.339972
                                                         1.317942       0.505803
                                                         0.222221      -0.150343
                                                         0.074524      -0.031874
                                                         0.066725       0.007024
                          1       2    3py               1.666928      -0.339972
                                                         1.317942       0.505803
                                                         0.222221      -0.150343
                                                         0.074524      -0.031874
                                                         0.066725       0.007024
                          1       2    3pz               1.666928      -0.339972
                                                         1.317942       0.505803
                                                         0.222221      -0.150343
                                                         0.074524      -0.031874
                                                         0.066725       0.007024

     GTH Potential information for                                    GTH-PBE-q5

       Description:                       Goedecker-Teter-Hutter pseudopotential
                                           Goedecker et al., PRB 54, 1703 (1996)
                                          Hartwigsen et al., PRB 58, 3641 (1998)
                                                      Krack, TCA 114, 145 (2005)

       Gaussian exponent of the core charge distribution:               1.366027
       Electronic configuration (s p d ...):                               2   3

       Parameters of the local part of the GTH pseudopotential:

                          rloc        C1          C2          C3          C4
                        0.605000    7.945757

       Parameters of the non-local part of the GTH pseudopotential:

                   l      r(l)      h(i,j,l)

                   0    0.582232    0.643735    2.247616   -1.440601
                                    2.247616   -5.244797    3.719615
                                   -1.440601    3.719615   -2.952353
                   1    0.766394    0.212533    0.379834
                                    0.379834   -0.449426
                   2    0.965655    0.347298

  2. Atomic kind: O                                     Number of atoms:     144

     Orbital Basis Set                                            SZV-MOLOPT-GTH

       Number of orbital shell sets:                                           1
       Number of orbital shells:                                               2
       Number of primitive Cartesian functions:                                7
       Number of Cartesian basis functions:                                    4
       Number of spherical basis functions:                                    4
       Norm type:                                                              2

       Normalised Cartesian orbitals:

                        Set   Shell   Orbital            Exponent    Coefficient

                          1       1    2s               12.015955      -0.284499
                                                         5.108150      -0.322498
                                                         2.048398       0.148191
                                                         0.832382       0.295475
                                                         0.352316       0.150829
                                                         0.142977       0.015788
                                                         0.046761      -0.000019

                          1       2    3px              12.015955       1.192141
                                                         5.108150       1.354170
                                                         2.048398       0.897267
                                                         0.832382       0.408839
                                                         0.352316       0.116648
                                                         0.142977       0.022184
                                                         0.046761       0.000308
                          1       2    3py              12.015955       1.192141
                                                         5.108150       1.354170
                                                         2.048398       0.897267
                                                         0.832382       0.408839
                                                         0.352316       0.116648
                                                         0.142977       0.022184
                                                         0.046761       0.000308
                          1       2    3pz              12.015955       1.192141
                                                         5.108150       1.354170
                                                         2.048398       0.897267
                                                         0.832382       0.408839
                                                         0.352316       0.116648
                                                         0.142977       0.022184
                                                         0.046761       0.000308

     GTH Potential information for                                    GTH-PBE-q6

       Description:                       Goedecker-Teter-Hutter pseudopotential
                                           Goedecker et al., PRB 54, 1703 (1996)
                                          Hartwigsen et al., PRB 58, 3641 (1998)
                                                      Krack, TCA 114, 145 (2005)

       Gaussian exponent of the core charge distribution:               8.360253
       Electronic configuration (s p d ...):                               2   4

       Parameters of the local part of the GTH pseudopotential:

                          rloc        C1          C2          C3          C4
                        0.244554  -16.667215    2.487311

       Parameters of the non-local part of the GTH pseudopotential:

                   l      r(l)      h(i,j,l)

                   0    0.220956   18.337458
                   1    0.211332

  3. Atomic kind: V                                     Number of atoms:      36

     Orbital Basis Set                                         SZV-MOLOPT-SR-GTH

       Number of orbital shell sets:                                           1
       Number of orbital shells:                                               4
       Number of primitive Cartesian functions:                                6
       Number of Cartesian basis functions:                                   11
       Number of spherical basis functions:                                   10
       Norm type:                                                              2

       Normalised Cartesian orbitals:

                        Set   Shell   Orbital            Exponent    Coefficient

                          1       1    2s                7.984624       0.068312
                                                         4.192170       0.996465
                                                         1.674403      -0.695882
                                                         0.666665      -0.342831
                                                         0.242420      -0.011700
                                                         0.067390      -0.000008

                          1       2    3s                7.984624       0.010854
                                                         4.192170       0.224393
                                                         1.674403      -0.208460
                                                         0.666665      -0.212021
                                                         0.242420       0.023706
                                                         0.067390       0.098708

                          1       3    3px               7.984624      -2.273073
                                                         4.192170       1.136092
                                                         1.674403       1.409224
                                                         0.666665       0.387613
                                                         0.242420       0.019510
                                                         0.067390      -0.000216
                          1       3    3py               7.984624      -2.273073
                                                         4.192170       1.136092
                                                         1.674403       1.409224
                                                         0.666665       0.387613
                                                         0.242420       0.019510
                                                         0.067390      -0.000216
                          1       3    3pz               7.984624      -2.273073
                                                         4.192170       1.136092
                                                         1.674403       1.409224
                                                         0.666665       0.387613
                                                         0.242420       0.019510
                                                         0.067390      -0.000216

                          1       4    4dx2              7.984624       3.479555
                                                         4.192170       3.995918
                                                         1.674403       1.309836
                                                         0.666665       0.287934
                                                         0.242420       0.045388
                                                         0.067390       0.001996
                          1       4    4dxy              7.984624       6.026766
                                                         4.192170       6.921133
                                                         1.674403       2.268703
                                                         0.666665       0.498717
                                                         0.242420       0.078614
                                                         0.067390       0.003457
                          1       4    4dxz              7.984624       6.026766
                                                         4.192170       6.921133
                                                         1.674403       2.268703
                                                         0.666665       0.498717
                                                         0.242420       0.078614
                                                         0.067390       0.003457
                          1       4    4dy2              7.984624       3.479555
                                                         4.192170       3.995918
                                                         1.674403       1.309836
                                                         0.666665       0.287934
                                                         0.242420       0.045388
                                                         0.067390       0.001996
                          1       4    4dyz              7.984624       6.026766
                                                         4.192170       6.921133
                                                         1.674403       2.268703
                                                         0.666665       0.498717
                                                         0.242420       0.078614
                                                         0.067390       0.003457
                          1       4    4dz2              7.984624       3.479555
                                                         4.192170       3.995918
                                                         1.674403       1.309836
                                                         0.666665       0.287934
                                                         0.242420       0.045388
                                                         0.067390       0.001996

     GTH Potential information for                                   GTH-PBE-q13

       Description:                       Goedecker-Teter-Hutter pseudopotential
                                           Goedecker et al., PRB 54, 1703 (1996)
                                          Hartwigsen et al., PRB 58, 3641 (1998)
                                                      Krack, TCA 114, 145 (2005)

       Gaussian exponent of the core charge distribution:               3.555556
       Electronic configuration (s p d ...):                           4   6   3

       Parameters of the local part of the GTH pseudopotential:

                          rloc        C1          C2          C3          C4
                        0.375000    7.474704   -0.370264

       Parameters of the non-local part of the GTH pseudopotential:

                   l      r(l)      h(i,j,l)

                   0    0.327795    1.940878    4.725688
                                    4.725688   -6.100837
                   1    0.244766   -5.978167    9.358639
                                    9.358639  -11.073291
                   2    0.241739   -9.499891

     A DFT+U correction is applied to atoms of this atomic kind:
       Angular quantum momentum number L:                                      2
       U(eff) = (U - J) value in [eV]:                                     6.000


 MOLECULE KIND INFORMATION


 All atoms are their own molecule, skipping detailed information


 TOTAL NUMBERS AND MAXIMUM NUMBERS

  Total number of            - Atomic kinds:                                   3
                             - Atoms:                                        216
                             - Shell sets:                                   216
                             - Shells:                                       504
                             - Primitive Cartesian functions:               1404
                             - Cartesian basis functions:                   1116
                             - Spherical basis functions:                   1080

  Maximum angular momentum of- Orbital basis functions:                        2
                             - Local part of the GTH pseudopotential:          2
                             - Non-local part of the GTH pseudopotential:      4


 MODULE QUICKSTEP:  ATOMIC COORDINATES IN angstrom

  Atom  Kind  Element       X           Y           Z          Z(eff)       Mass

       1     1 Bi  83    2.589288    1.273347   10.234870      5.00     208.9804
       2     1 Bi  83    2.555241    6.366733   10.234870      5.00     208.9804
       3     1 Bi  83    2.521193   11.460119   10.234870      5.00     208.9804
       4     1 Bi  83    7.784888    1.273347   10.234870      5.00     208.9804
       5     1 Bi  83    7.750840    6.366733   10.234870      5.00     208.9804
       6     1 Bi  83    7.716793   11.460119   10.234870      5.00     208.9804
       7     1 Bi  83   12.980488    1.273347   10.234870      5.00     208.9804
       8     1 Bi  83   12.946441    6.366733   10.234870      5.00     208.9804
       9     1 Bi  83   12.912393   11.460119   10.234870      5.00     208.9804
      10     1 Bi  83    2.572264    3.820040    1.469632      5.00     208.9804
      11     1 Bi  83    2.538217    8.913426    1.469632      5.00     208.9804
      12     1 Bi  83    2.504169   14.006812    1.469632      5.00     208.9804
      13     1 Bi  83    7.767864    3.820040    1.469632      5.00     208.9804
      14     1 Bi  83    7.733817    8.913426    1.469632      5.00     208.9804
      15     1 Bi  83    7.699769   14.006812    1.469632      5.00     208.9804
      16     1 Bi  83   12.963464    3.820040    1.469632      5.00     208.9804
      17     1 Bi  83   12.929417    8.913426    1.469632      5.00     208.9804
      18     1 Bi  83   12.895369   14.006812    1.469632      5.00     208.9804
      19     1 Bi  83   -0.008512    1.273347    7.321884      5.00     208.9804
      20     1 Bi  83   -0.042559    6.366733    7.321884      5.00     208.9804
      21     1 Bi  83   -0.076606   11.460120    7.321884      5.00     208.9804
      22     1 Bi  83    5.187088    1.273347    7.321884      5.00     208.9804
      23     1 Bi  83    5.153041    6.366733    7.321884      5.00     208.9804
      24     1 Bi  83    5.118994   11.460120    7.321884      5.00     208.9804
      25     1 Bi  83   10.382688    1.273347    7.321884      5.00     208.9804
      26     1 Bi  83   10.348641    6.366733    7.321884      5.00     208.9804
      27     1 Bi  83   10.314593   11.460120    7.321884      5.00     208.9804
      28     1 Bi  83   -0.025536    3.820040    4.382619      5.00     208.9804
      29     1 Bi  83   -0.059583    8.913426    4.382619      5.00     208.9804
      30     1 Bi  83   -0.093630   14.006812    4.382619      5.00     208.9804
      31     1 Bi  83    5.170064    3.820040    4.382619      5.00     208.9804
      32     1 Bi  83    5.136017    8.913426    4.382619      5.00     208.9804
      33     1 Bi  83    5.101970   14.006812    4.382619      5.00     208.9804
      34     1 Bi  83   10.365664    3.820040    4.382619      5.00     208.9804
      35     1 Bi  83   10.331617    8.913426    4.382619      5.00     208.9804
      36     1 Bi  83   10.297569   14.006812    4.382619      5.00     208.9804
      37     2 O    8    3.890764    1.987251    0.522587      6.00      15.9994
      38     2 O    8    3.856716    7.080637    0.522587      6.00      15.9994
      39     2 O    8    3.822669   12.174023    0.522587      6.00      15.9994
      40     2 O    8    9.086363    1.987250    0.522587      6.00      15.9994
      41     2 O    8    9.052316    7.080637    0.522587      6.00      15.9994
      42     2 O    8    9.018268   12.174023    0.522587      6.00      15.9994
      43     2 O    8   14.281963    1.987251    0.522587      6.00      15.9994
      44     2 O    8   14.247916    7.080637    0.522587      6.00      15.9994
      45     2 O    8   14.213868   12.174023    0.522587      6.00      15.9994
      46     2 O    8    3.305248    2.546227    3.448447      6.00      15.9994
      47     2 O    8    3.271201    7.639613    3.448447      6.00      15.9994
      48     2 O    8    3.237153   12.732999    3.448447      6.00      15.9994
      49     2 O    8    8.500847    2.546227    3.448447      6.00      15.9994
      50     2 O    8    8.466800    7.639613    3.448447      6.00      15.9994
      51     2 O    8    8.432753   12.733000    3.448447      6.00      15.9994
      52     2 O    8   13.696448    2.546227    3.448447      6.00      15.9994
      53     2 O    8   13.662400    7.639613    3.448447      6.00      15.9994
      54     2 O    8   13.628353   12.732999    3.448447      6.00      15.9994
      55     2 O    8    1.275941    4.533947    6.374835      6.00      15.9994
      56     2 O    8    1.241893    9.627334    6.374835      6.00      15.9994
      57     2 O    8    1.207846   14.720720    6.374835      6.00      15.9994
      58     2 O    8    6.471541    4.533947    6.374835      6.00      15.9994
      59     2 O    8    6.437494    9.627334    6.374835      6.00      15.9994
      60     2 O    8    6.403446   14.720720    6.374835      6.00      15.9994
      61     2 O    8   11.667141    4.533947    6.374835      6.00      15.9994
      62     2 O    8   11.633094    9.627334    6.374835      6.00      15.9994
      63     2 O    8   11.599046   14.720720    6.374835      6.00      15.9994
      64     2 O    8    0.724471   -0.000465    9.300696      6.00      15.9994
      65     2 O    8    0.690423    5.092921    9.300696      6.00      15.9994
      66     2 O    8    0.656376   10.186308    9.300696      6.00      15.9994
      67     2 O    8    5.920071   -0.000465    9.300696      6.00      15.9994
      68     2 O    8    5.886024    5.092921    9.300696      6.00      15.9994
      69     2 O    8    5.851976   10.186308    9.300696      6.00      15.9994
      70     2 O    8   11.115671   -0.000465    9.300696      6.00      15.9994
      71     2 O    8   11.081624    5.092921    9.300696      6.00      15.9994
      72     2 O    8   11.047576   10.186308    9.300696      6.00      15.9994
      73     2 O    8    1.771186   15.280625    3.448447      6.00      15.9994
      74     2 O    8    1.839281    5.093853    3.448447      6.00      15.9994
      75     2 O    8    1.805233   10.187239    3.448447      6.00      15.9994
      76     2 O    8    6.966786   15.280625    3.448447      6.00      15.9994
      77     2 O    8    7.034881    5.093852    3.448447      6.00      15.9994
      78     2 O    8    7.000834   10.187239    3.448447      6.00      15.9994
      79     2 O    8   12.162386   15.280625    3.448447      6.00      15.9994
      80     2 O    8   12.230480    5.093852    3.448447      6.00      15.9994
      81     2 O    8   12.196433   10.187239    3.448447      6.00      15.9994
      82     2 O    8    0.707447    2.546228    2.403805      6.00      15.9994
      83     2 O    8    0.673399    7.639614    2.403805      6.00      15.9994
      84     2 O    8    0.639352   12.733001    2.403805      6.00      15.9994
      85     2 O    8    5.903047    2.546228    2.403805      6.00      15.9994
      86     2 O    8    5.869000    7.639614    2.403805      6.00      15.9994
      87     2 O    8    5.834952   12.733001    2.403805      6.00      15.9994
      88     2 O    8   11.098647    2.546228    2.403805      6.00      15.9994
      89     2 O    8   11.064600    7.639614    2.403805      6.00      15.9994
      90     2 O    8   11.030552   12.733001    2.403805      6.00      15.9994
      91     2 O    8    4.454105    2.547158    9.300696      6.00      15.9994
      92     2 O    8    4.420058    7.640545    9.300696      6.00      15.9994
      93     2 O    8    4.386010   12.733931    9.300696      6.00      15.9994
      94     2 O    8    9.649705    2.547158    9.300696      6.00      15.9994
      95     2 O    8    9.615657    7.640545    9.300696      6.00      15.9994
      96     2 O    8    9.581610   12.733931    9.300696      6.00      15.9994
      97     2 O    8   14.845305    2.547158    9.300696      6.00      15.9994
      98     2 O    8   14.811258    7.640545    9.300696      6.00      15.9994
      99     2 O    8   14.777210   12.733931    9.300696      6.00      15.9994
     100     2 O    8    1.270789    3.106136   11.181914      6.00      15.9994
     101     2 O    8    1.236741    8.199522   11.181914      6.00      15.9994
     102     2 O    8    1.202694   13.292909   11.181914      6.00      15.9994
     103     2 O    8    6.466389    3.106136   11.181914      6.00      15.9994
     104     2 O    8    6.432341    8.199522   11.181914      6.00      15.9994
     105     2 O    8    6.398294   13.292909   11.181914      6.00      15.9994
     106     2 O    8   11.661988    3.106136   11.181914      6.00      15.9994
     107     2 O    8   11.627941    8.199522   11.181914      6.00      15.9994
     108     2 O    8   11.593893   13.292909   11.181914      6.00      15.9994
     109     2 O    8    1.856304    2.547160    8.256054      6.00      15.9994
     110     2 O    8    1.822257    7.640546    8.256054      6.00      15.9994
     111     2 O    8    1.788210   12.733932    8.256053      6.00      15.9994
     112     2 O    8    7.051905    2.547160    8.256054      6.00      15.9994
     113     2 O    8    7.017858    7.640546    8.256053      6.00      15.9994
     114     2 O    8    6.983810   12.733932    8.256053      6.00      15.9994
     115     2 O    8   12.247504    2.547160    8.256054      6.00      15.9994
     116     2 O    8   12.213457    7.640546    8.256053      6.00      15.9994
     117     2 O    8   12.179410   12.733932    8.256053      6.00      15.9994
     118     2 O    8    3.885611    0.559439    5.329665      6.00      15.9994
     119     2 O    8    3.851564    5.652825    5.329665      6.00      15.9994
     120     2 O    8    3.817517   10.746212    5.329665      6.00      15.9994
     121     2 O    8    9.081211    0.559439    5.329665      6.00      15.9994
     122     2 O    8    9.047164    5.652825    5.329665      6.00      15.9994
     123     2 O    8    9.013117   10.746212    5.329665      6.00      15.9994
     124     2 O    8   14.276812    0.559439    5.329665      6.00      15.9994
     125     2 O    8   14.242764    5.652826    5.329665      6.00      15.9994
     126     2 O    8   14.208717   10.746212    5.329665      6.00      15.9994
     127     2 O    8    4.368987   15.280624    2.403805      6.00      15.9994
     128     2 O    8    4.437081    5.093851    2.403805      6.00      15.9994
     129     2 O    8    4.403034   10.187238    2.403805      6.00      15.9994
     130     2 O    8    9.564586   15.280624    2.403805      6.00      15.9994
     131     2 O    8    9.632681    5.093851    2.403805      6.00      15.9994
     132     2 O    8    9.598634   10.187238    2.403805      6.00      15.9994
     133     2 O    8   14.760187   15.280624    2.403805      6.00      15.9994
     134     2 O    8   14.828282    5.093851    2.403805      6.00      15.9994
     135     2 O    8   14.794234   10.187238    2.403805      6.00      15.9994
     136     2 O    8    3.873740    4.533943   11.181914      6.00      15.9994
     137     2 O    8    3.839693    9.627330   11.181914      6.00      15.9994
     138     2 O    8    3.805645   14.720716   11.181914      6.00      15.9994
     139     2 O    8    9.069339    4.533943   11.181914      6.00      15.9994
     140     2 O    8    9.035292    9.627330   11.181914      6.00      15.9994
     141     2 O    8    9.001245   14.720716   11.181914      6.00      15.9994
     142     2 O    8   14.264940    4.533943   11.181914      6.00      15.9994
     143     2 O    8   14.230892    9.627330   11.181914      6.00      15.9994
     144     2 O    8   14.196845   14.720716   11.181914      6.00      15.9994
     145     2 O    8    3.322272   -0.000466    8.256054      6.00      15.9994
     146     2 O    8    3.288224    5.092920    8.256054      6.00      15.9994
     147     2 O    8    3.254177   10.186307    8.256054      6.00      15.9994
     148     2 O    8    8.517871   -0.000466    8.256054      6.00      15.9994
     149     2 O    8    8.483824    5.092920    8.256054      6.00      15.9994
     150     2 O    8    8.449776   10.186307    8.256054      6.00      15.9994
     151     2 O    8   13.713472   -0.000466    8.256054      6.00      15.9994
     152     2 O    8   13.679424    5.092920    8.256054      6.00      15.9994
     153     2 O    8   13.645377   10.186307    8.256054      6.00      15.9994
     154     2 O    8    1.292964    1.987254    5.329665      6.00      15.9994
     155     2 O    8    1.258917    7.080640    5.329665      6.00      15.9994
     156     2 O    8    1.224869   12.174027    5.329665      6.00      15.9994
     157     2 O    8    6.488564    1.987254    5.329665      6.00      15.9994
     158     2 O    8    6.454517    7.080641    5.329665      6.00      15.9994
     159     2 O    8    6.420469   12.174027    5.329665      6.00      15.9994
     160     2 O    8   11.684164    1.987254    5.329665      6.00      15.9994
     161     2 O    8   11.650117    7.080641    5.329665      6.00      15.9994
     162     2 O    8   11.616069   12.174027    5.329665      6.00      15.9994
     163     2 O    8    3.868588    3.106133    6.374835      6.00      15.9994
     164     2 O    8    3.834540    8.199519    6.374835      6.00      15.9994
     165     2 O    8    3.800493   13.292905    6.374835      6.00      15.9994
     166     2 O    8    9.064188    3.106133    6.374835      6.00      15.9994
     167     2 O    8    9.030140    8.199519    6.374835      6.00      15.9994
     168     2 O    8    8.996093   13.292905    6.374835      6.00      15.9994
     169     2 O    8   14.259788    3.106133    6.374835      6.00      15.9994
     170     2 O    8   14.225741    8.199519    6.374835      6.00      15.9994
     171     2 O    8   14.191693   13.292905    6.374835      6.00      15.9994
     172     2 O    8    1.287813    0.559442    0.522587      6.00      15.9994
     173     2 O    8    1.253765    5.652829    0.522587      6.00      15.9994
     174     2 O    8    1.219718   10.746215    0.522587      6.00      15.9994
     175     2 O    8    6.483413    0.559443    0.522587      6.00      15.9994
     176     2 O    8    6.449366    5.652829    0.522587      6.00      15.9994
     177     2 O    8    6.415318   10.746216    0.522587      6.00      15.9994
     178     2 O    8   11.679012    0.559442    0.522587      6.00      15.9994
     179     2 O    8   11.644965    5.652829    0.522587      6.00      15.9994
     180     2 O    8   11.610918   10.746215    0.522587      6.00      15.9994
     181     3 V   23   -0.008512    1.273347    1.448643     13.00      50.9415
     182     3 V   23   -0.042559    6.366733    1.448643     13.00      50.9415
     183     3 V   23   -0.076607   11.460119    1.448643     13.00      50.9415
     184     3 V   23    5.187088    1.273347    1.448643     13.00      50.9415
     185     3 V   23    5.153041    6.366733    1.448643     13.00      50.9415
     186     3 V   23    5.118993   11.460119    1.448643     13.00      50.9415
     187     3 V   23   10.382688    1.273347    1.448643     13.00      50.9415
     188     3 V   23   10.348640    6.366733    1.448643     13.00      50.9415
     189     3 V   23   10.314593   11.460119    1.448643     13.00      50.9415
     190     3 V   23    2.572264    3.820040    7.300890     13.00      50.9415
     191     3 V   23    2.538217    8.913426    7.300890     13.00      50.9415
     192     3 V   23    2.504170   14.006813    7.300890     13.00      50.9415
     193     3 V   23    7.767864    3.820040    7.300890     13.00      50.9415
     194     3 V   23    7.733817    8.913426    7.300890     13.00      50.9415
     195     3 V   23    7.699770   14.006813    7.300890     13.00      50.9415
     196     3 V   23   12.963464    3.820040    7.300890     13.00      50.9415
     197     3 V   23   12.929417    8.913426    7.300890     13.00      50.9415
     198     3 V   23   12.895370   14.006813    7.300890     13.00      50.9415
     199     3 V   23   -0.025536    3.820040   10.255858     13.00      50.9415
     200     3 V   23   -0.059583    8.913426   10.255858     13.00      50.9415
     201     3 V   23   -0.093630   14.006813   10.255858     13.00      50.9415
     202     3 V   23    5.170064    3.820040   10.255858     13.00      50.9415
     203     3 V   23    5.136017    8.913426   10.255858     13.00      50.9415
     204     3 V   23    5.101970   14.006812   10.255858     13.00      50.9415
     205     3 V   23   10.365664    3.820040   10.255858     13.00      50.9415
     206     3 V   23   10.331617    8.913426   10.255858     13.00      50.9415
     207     3 V   23   10.297569   14.006813   10.255858     13.00      50.9415
     208     3 V   23    2.589288    1.273347    4.403611     13.00      50.9415
     209     3 V   23    2.555240    6.366733    4.403611     13.00      50.9415
     210     3 V   23    2.521193   11.460119    4.403611     13.00      50.9415
     211     3 V   23    7.784888    1.273347    4.403611     13.00      50.9415
     212     3 V   23    7.750840    6.366733    4.403611     13.00      50.9415
     213     3 V   23    7.716793   11.460119    4.403611     13.00      50.9415
     214     3 V   23   12.980488    1.273347    4.403611     13.00      50.9415
     215     3 V   23   12.946440    6.366733    4.403610     13.00      50.9415
     216     3 V   23   12.912393   11.460119    4.403611     13.00      50.9415




 SCF PARAMETERS         Density guess:                                   RESTART
                        --------------------------------------------------------
                        max_scf:                                             500
                        max_scf_history:                                       0
                        max_diis:                                              4
                        --------------------------------------------------------
                        eps_scf:                                        1.00E-06
                        eps_scf_history:                                0.00E+00
                        eps_diis:                                       5.00E-01
                        eps_eigval:                                     1.00E-05
                        --------------------------------------------------------
                        level_shift [a.u.]:                                 0.00
                        --------------------------------------------------------
                        Mixing method:                            BROYDEN_MIXING
                                                charge density mixing in g-space
                        --------------------------------------------------------
                        Outer loop SCF in use 
                        No variables optimised in outer loop
                        eps_scf                                         1.00E-06
                        max_scf                                              500
                        No outer loop optimization
                        step_size                                       5.00E-01

 PW_GRID| Information for grid number                                          1
 PW_GRID| Grid distributed over                                   128 processors
 PW_GRID| Real space group dimensions                                   128    1
 PW_GRID| the grid is blocked:                                                NO
 PW_GRID| Cutoff [a.u.]                                                    325.0
 PW_GRID| spherical cutoff:                                                   NO
 PW_GRID|   Bounds   1           -120     119                Points:         240
 PW_GRID|   Bounds   2           -120     119                Points:         240
 PW_GRID|   Bounds   3            -90      89                Points:         180
 PW_GRID| Volume element (a.u.^3)  0.1814E-02     Volume (a.u.^3)     18811.9713
 PW_GRID| Grid span                                                    FULLSPACE
 PW_GRID|   Distribution                         Average         Max         Min
 PW_GRID|   G-Vectors                            81000.0       81120       80880
 PW_GRID|   G-Rays                                 337.5         338         337
 PW_GRID|   Real Space Points                    81000.0       86400       43200

 PW_GRID| Information for grid number                                          2
 PW_GRID| Grid distributed over                                   128 processors
 PW_GRID| Real space group dimensions                                   128    1
 PW_GRID| the grid is blocked:                                                NO
 PW_GRID| Cutoff [a.u.]                                                    108.3
 PW_GRID| spherical cutoff:                                                   NO
 PW_GRID|   Bounds   1            -70      69                Points:         140
 PW_GRID|   Bounds   2            -67      67                Points:         135
 PW_GRID|   Bounds   3            -52      52                Points:         105
 PW_GRID| Volume element (a.u.^3)  0.9479E-02     Volume (a.u.^3)     18811.9713
 PW_GRID| Grid span                                                    FULLSPACE
 PW_GRID|   Distribution                         Average         Max         Min
 PW_GRID|   G-Vectors                            15503.9       16100       14840
 PW_GRID|   G-Rays                                 110.7         115         106
 PW_GRID|   Real Space Points                    15503.9       28350       14175

 PW_GRID| Information for grid number                                          3
 PW_GRID| Grid distributed over                                   128 processors
 PW_GRID| Real space group dimensions                                     8   16
 PW_GRID| the grid is blocked:                                                NO
 PW_GRID| Cutoff [a.u.]                                                     36.1
 PW_GRID| spherical cutoff:                                                   NO
 PW_GRID|   Bounds   1            -40      39                Points:          80
 PW_GRID|   Bounds   2            -40      39                Points:          80
 PW_GRID|   Bounds   3            -30      29                Points:          60
 PW_GRID| Volume element (a.u.^3)  0.4899E-01     Volume (a.u.^3)     18811.9713
 PW_GRID| Grid span                                                    FULLSPACE
 PW_GRID|   Distribution                         Average         Max         Min
 PW_GRID|   G-Vectors                             3000.0        3360        2560
 PW_GRID|   G-Rays                                  37.5          42          32
 PW_GRID|   Real Space Points                     3000.0        3000        3000

 PW_GRID| Information for grid number                                          4
 PW_GRID| Grid distributed over                                   128 processors
 PW_GRID| Real space group dimensions                                     8   16
 PW_GRID| the grid is blocked:                                                NO
 PW_GRID| Cutoff [a.u.]                                                     12.0
 PW_GRID| spherical cutoff:                                                   NO
 PW_GRID|   Bounds   1            -24      23                Points:          48
 PW_GRID|   Bounds   2            -22      22                Points:          45
 PW_GRID|   Bounds   3            -17      17                Points:          35
 PW_GRID| Volume element (a.u.^3)  0.2488         Volume (a.u.^3)     18811.9713
 PW_GRID| Grid span                                                    FULLSPACE
 PW_GRID|   Distribution                         Average         Max         Min
 PW_GRID|   G-Vectors                              590.6         672         480
 PW_GRID|   G-Rays                                  12.3          14          10
 PW_GRID|   Real Space Points                      590.6         630         420

 PW_GRID| Information for grid number                                          5
 PW_GRID| Grid distributed over                                   128 processors
 PW_GRID| Real space group dimensions                                     8   16
 PW_GRID| the grid is blocked:                                                NO
 PW_GRID| Cutoff [a.u.]                                                      4.0
 PW_GRID| spherical cutoff:                                                   NO
 PW_GRID|   Bounds   1            -13      13                Points:          27
 PW_GRID|   Bounds   2            -13      13                Points:          27
 PW_GRID|   Bounds   3            -10       9                Points:          20
 PW_GRID| Volume element (a.u.^3)   1.290         Volume (a.u.^3)     18811.9713
 PW_GRID| Grid span                                                    FULLSPACE
 PW_GRID|   Distribution                         Average         Max         Min
 PW_GRID|   G-Vectors                              113.9         135          81
 PW_GRID|   G-Rays                                   4.2           5           3
 PW_GRID|   Real Space Points                      113.9         160          60

 PW_GRID| Information for grid number                                          6
 PW_GRID| Grid distributed over                                   128 processors
 PW_GRID| Real space group dimensions                                     8   16
 PW_GRID| the grid is blocked:                                                NO
 PW_GRID| Cutoff [a.u.]                                                      1.3
 PW_GRID| spherical cutoff:                                                   NO
 PW_GRID|   Bounds   1             -7       7                Points:          15
 PW_GRID|   Bounds   2             -7       7                Points:          15
 PW_GRID|   Bounds   3             -5       5                Points:          11
 PW_GRID| Volume element (a.u.^3)   7.601         Volume (a.u.^3)     18811.9713
 PW_GRID| Grid span                                                    FULLSPACE
 PW_GRID|   Distribution                         Average         Max         Min
 PW_GRID|   G-Vectors                               19.3          45           0
 PW_GRID|   G-Rays                                   1.3           3           0
 PW_GRID|   Real Space Points                       19.3          22           0

 PW_GRID| Information for grid number                                          7
 PW_GRID| Grid distributed over                                   128 processors
 PW_GRID| Real space group dimensions                                     8   16
 PW_GRID| the grid is blocked:                                                NO
 PW_GRID| Cutoff [a.u.]                                                      0.4
 PW_GRID| spherical cutoff:                                                   NO
 PW_GRID|   Bounds   1             -4       4                Points:           9
 PW_GRID|   Bounds   2             -4       4                Points:           9
 PW_GRID|   Bounds   3             -3       3                Points:           7
 PW_GRID| Volume element (a.u.^3)   33.18         Volume (a.u.^3)     18811.9713
 PW_GRID| Grid span                                                    FULLSPACE
 PW_GRID|   Distribution                         Average         Max         Min
 PW_GRID|   G-Vectors                                4.4           9           0
 PW_GRID|   G-Rays                                   0.5           1           0
 PW_GRID|   Real Space Points                        4.4          14           0

 PW_GRID| Information for grid number                                          8
 PW_GRID| Grid distributed over                                   128 processors
 PW_GRID| Real space group dimensions                                     8   16
 PW_GRID| the grid is blocked:                                                NO
 PW_GRID| Cutoff [a.u.]                                                      0.1
 PW_GRID| spherical cutoff:                                                   NO
 PW_GRID|   Bounds   1             -2       2                Points:           5
 PW_GRID|   Bounds   2             -2       2                Points:           5
 PW_GRID|   Bounds   3             -1       1                Points:           3
 PW_GRID| Volume element (a.u.^3)   250.8         Volume (a.u.^3)     18811.9713
 PW_GRID| Grid span                                                    FULLSPACE
 PW_GRID|   Distribution                         Average         Max         Min
 PW_GRID|   G-Vectors                                0.6           5           0
 PW_GRID|   G-Rays                                   0.1           1           0
 PW_GRID|   Real Space Points                        0.6           3           0

 PW_GRID| Information for grid number                                          9
 PW_GRID| Grid distributed over                                   128 processors
 PW_GRID| Real space group dimensions                                     8   16
 PW_GRID| the grid is blocked:                                                NO
 PW_GRID| Cutoff [a.u.]                                                      0.0
 PW_GRID| spherical cutoff:                                                   NO
 PW_GRID|   Bounds   1             -1       1                Points:           3
 PW_GRID|   Bounds   2             -1       1                Points:           3
 PW_GRID|   Bounds   3             -1       1                Points:           3
 PW_GRID| Volume element (a.u.^3)   696.7         Volume (a.u.^3)     18811.9713
 PW_GRID| Grid span                                                    FULLSPACE
 PW_GRID|   Distribution                         Average         Max         Min
 PW_GRID|   G-Vectors                                0.2           3           0
 PW_GRID|   G-Rays                                   0.1           1           0
 PW_GRID|   Real Space Points                        0.2           3           0

 PW_GRID| Information for grid number                                         10
 PW_GRID| Grid distributed over                                   128 processors
 PW_GRID| Real space group dimensions                                     8   16
 PW_GRID| the grid is blocked:                                                NO
 PW_GRID| Cutoff [a.u.]                                                      0.0
 PW_GRID| spherical cutoff:                                                   NO
 PW_GRID|   Bounds   1              0       0                Points:           1
 PW_GRID|   Bounds   2              0       0                Points:           1
 PW_GRID|   Bounds   3              0       0                Points:           1
 PW_GRID| Volume element (a.u.^3)  0.1881E+05     Volume (a.u.^3)     18811.9713
 PW_GRID| Grid span                                                    FULLSPACE
 PW_GRID|   Distribution                         Average         Max         Min
 PW_GRID|   G-Vectors                                0.0           1           0
 PW_GRID|   G-Rays                                   0.0           1           0
 PW_GRID|   Real Space Points                        0.0           1           0

 POISSON| Solver                                                        PERIODIC
 POISSON| Periodicity                                                        XYZ

 RS_GRID| Information for grid number                                          1
 RS_GRID|   Bounds   1           -120     119                Points:         240
 RS_GRID|   Bounds   2           -120     119                Points:         240
 RS_GRID|   Bounds   3            -90      89                Points:         180
 RS_GRID| Real space distribution over                                  8 groups
 RS_GRID| Real space distribution along direction                              1
 RS_GRID| Border size                                                         41
 RS_GRID| Real space distribution over                                 16 groups
 RS_GRID| Real space distribution along direction                              2
 RS_GRID| Border size                                                         41
 RS_GRID|   Distribution                         Average         Max         Min
 RS_GRID|   Planes                                 112.0         112         112
 RS_GRID|   Distribution                         Average         Max         Min
 RS_GRID|   Planes                                  97.0          97          97

 RS_GRID| Information for grid number                                          2
 RS_GRID|   Bounds   1            -70      69                Points:         140
 RS_GRID|   Bounds   2            -67      67                Points:         135
 RS_GRID|   Bounds   3            -52      52                Points:         105
 RS_GRID| Real space distribution over                                  8 groups
 RS_GRID| Real space distribution along direction                              1
 RS_GRID| Border size                                                         27
 RS_GRID| Real space distribution over                                 16 groups
 RS_GRID| Real space distribution along direction                              2
 RS_GRID| Border size                                                         27
 RS_GRID|   Distribution                         Average         Max         Min
 RS_GRID|   Planes                                  71.5          72          71
 RS_GRID|   Distribution                         Average         Max         Min
 RS_GRID|   Planes                                  62.4          63          62

 RS_GRID| Information for grid number                                          3
 RS_GRID|   Bounds   1            -40      39                Points:          80
 RS_GRID|   Bounds   2            -40      39                Points:          80
 RS_GRID|   Bounds   3            -30      29                Points:          60
 RS_GRID| Real space fully replicated
 RS_GRID| Group size                                                           1

 RS_GRID| Information for grid number                                          4
 RS_GRID|   Bounds   1            -24      23                Points:          48
 RS_GRID|   Bounds   2            -22      22                Points:          45
 RS_GRID|   Bounds   3            -17      17                Points:          35
 RS_GRID| Real space fully replicated
 RS_GRID| Group size                                                           1

 RS_GRID| Information for grid number                                          5
 RS_GRID|   Bounds   1            -13      13                Points:          27
 RS_GRID|   Bounds   2            -13      13                Points:          27
 RS_GRID|   Bounds   3            -10       9                Points:          20
 RS_GRID| Real space fully replicated
 RS_GRID| Group size                                                           1

 RS_GRID| Information for grid number                                          6
 RS_GRID|   Bounds   1             -7       7                Points:          15
 RS_GRID|   Bounds   2             -7       7                Points:          15
 RS_GRID|   Bounds   3             -5       5                Points:          11
 RS_GRID| Real space fully replicated
 RS_GRID| Group size                                                           1

 RS_GRID| Information for grid number                                          7
 RS_GRID|   Bounds   1             -4       4                Points:           9
 RS_GRID|   Bounds   2             -4       4                Points:           9
 RS_GRID|   Bounds   3             -3       3                Points:           7
 RS_GRID| Real space fully replicated
 RS_GRID| Group size                                                           1

 RS_GRID| Information for grid number                                          8
 RS_GRID|   Bounds   1             -2       2                Points:           5
 RS_GRID|   Bounds   2             -2       2                Points:           5
 RS_GRID|   Bounds   3             -1       1                Points:           3
 RS_GRID| Real space fully replicated
 RS_GRID| Group size                                                           1

 RS_GRID| Information for grid number                                          9
 RS_GRID|   Bounds   1             -1       1                Points:           3
 RS_GRID|   Bounds   2             -1       1                Points:           3
 RS_GRID|   Bounds   3             -1       1                Points:           3
 RS_GRID| Real space fully replicated
 RS_GRID| Group size                                                           1

 RS_GRID| Information for grid number                                         10
 RS_GRID|   Bounds   1              0       0                Points:           1
 RS_GRID|   Bounds   2              0       0                Points:           1
 RS_GRID|   Bounds   3              0       0                Points:           1
 RS_GRID| Real space fully replicated
 RS_GRID| Group size                                                           1

 Spin 1

 Number of electrons:                                                        756
 Number of occupied orbitals:                                                756
 Number of molecular orbitals:                                               756

 Spin 2

 Number of electrons:                                                        756
 Number of occupied orbitals:                                                756
 Number of molecular orbitals:                                               756

 Number of orbital functions:                                               1080
 Number of independent orbital functions:                                   1080

 Extrapolation method: initial_guess


 SCF WAVEFUNCTION OPTIMIZATION

  Step     Update method      Time    Convergence         Total energy    Change
  ------------------------------------------------------------------------------
     1 NoMix/Diag. 0.40E+00    4.6     0.00000730     -5074.0310709253 -5.07E+03
     2 Broy./Diag. 0.40E+00    5.9     0.00001142     -5074.0319898291 -9.19E-04
     3 Broy./Diag. 0.40E+00    5.8     0.00000206     -5074.0303263110  1.66E-03
     4 Broy./Diag. 0.40E+00    6.0     0.00000416     -5074.0305805925 -2.54E-04
     5 Broy./Diag. 0.40E+00    5.6     0.00000081     -5074.0312854277 -7.05E-04

  *** SCF run converged in     5 steps ***


  Electronic density on regular grids:      -1511.9999999900        0.0000000100
  Core density on regular grids:             1511.9999999989       -0.0000000011
  Total charge density on r-space grids:        0.0000000089
  Total charge density g-space grids:           0.0000000089

  Overlap energy of the core charge distribution:               0.00000000263308
  Self energy of the core charge distribution:             -10976.12486590282424
  Core Hamiltonian energy:                                   3050.62151747393273
  Hartree energy:                                            3717.00053463341465
  Exchange-correlation energy:                               -873.37248509080155

  DFT+U energy:                                                 7.84401345595234

  Total energy:                                             -5074.03128542769173

  outer SCF iter =    1 RMS gradient =   0.81E-06 energy =      -5074.0312854277
  outer SCF loop converged in   1 iterations or    5 steps


  Integrated absolute spin density  :                               0.0000000000
  Ideal and single determinant S**2 :                    0.000000       0.000000

 !-----------------------------------------------------------------------------!
                     Mulliken Population Analysis

 #  Atom  Element  Kind  Atomic population (alpha,beta) Net charge  Spin moment
       1     Bi       1         1.852397     1.852397     1.295207     0.000000
       2     Bi       1         1.852397     1.852397     1.295207     0.000000
       3     Bi       1         1.852397     1.852397     1.295207    -0.000000
       4     Bi       1         1.852397     1.852397     1.295207     0.000000
       5     Bi       1         1.852397     1.852397     1.295207    -0.000000
       6     Bi       1         1.852397     1.852397     1.295207    -0.000000
       7     Bi       1         1.852397     1.852397     1.295207    -0.000000
       8     Bi       1         1.852397     1.852397     1.295207    -0.000000
       9     Bi       1         1.852397     1.852397     1.295207     0.000000
      10     Bi       1         1.852397     1.852397     1.295207    -0.000000
      11     Bi       1         1.852397     1.852397     1.295207     0.000000
      12     Bi       1         1.852397     1.852397     1.295207    -0.000000
      13     Bi       1         1.852397     1.852397     1.295207    -0.000000
      14     Bi       1         1.852397     1.852397     1.295207    -0.000000
      15     Bi       1         1.852397     1.852397     1.295207     0.000000
      16     Bi       1         1.852397     1.852397     1.295207    -0.000000
      17     Bi       1         1.852397     1.852397     1.295207    -0.000000
      18     Bi       1         1.852397     1.852397     1.295207    -0.000000
      19     Bi       1         1.852397     1.852397     1.295207    -0.000000
      20     Bi       1         1.852397     1.852397     1.295207     0.000000
      21     Bi       1         1.852397     1.852397     1.295207    -0.000000
      22     Bi       1         1.852397     1.852397     1.295207    -0.000000
      23     Bi       1         1.852397     1.852397     1.295207    -0.000000
      24     Bi       1         1.852397     1.852397     1.295207    -0.000000
      25     Bi       1         1.852397     1.852397     1.295207     0.000000
      26     Bi       1         1.852397     1.852397     1.295207    -0.000000
      27     Bi       1         1.852397     1.852397     1.295207    -0.000000
      28     Bi       1         1.852396     1.852396     1.295207    -0.000000
      29     Bi       1         1.852396     1.852396     1.295207    -0.000000
      30     Bi       1         1.852396     1.852396     1.295207     0.000000
      31     Bi       1         1.852397     1.852397     1.295207    -0.000000
      32     Bi       1         1.852397     1.852397     1.295207    -0.000000
      33     Bi       1         1.852397     1.852397     1.295207     0.000000
      34     Bi       1         1.852397     1.852397     1.295207    -0.000000
      35     Bi       1         1.852397     1.852397     1.295207     0.000000
      36     Bi       1         1.852397     1.852397     1.295207     0.000000
      37     O        2         3.312501     3.312501    -0.625001     0.000000
      38     O        2         3.312501     3.312501    -0.625001     0.000000
      39     O        2         3.312501     3.312501    -0.625001     0.000000
      40     O        2         3.312501     3.312501    -0.625001     0.000000
      41     O        2         3.312501     3.312501    -0.625001     0.000000
      42     O        2         3.312501     3.312501    -0.625001     0.000000
      43     O        2         3.312501     3.312501    -0.625001     0.000000
      44     O        2         3.312501     3.312501    -0.625001     0.000000
      45     O        2         3.312501     3.312501    -0.625001     0.000000
      46     O        2         3.312166     3.312166    -0.624331    -0.000000
      47     O        2         3.312166     3.312166    -0.624331     0.000000
      48     O        2         3.312166     3.312166    -0.624331     0.000000
      49     O        2         3.312166     3.312166    -0.624331     0.000000
      50     O        2         3.312166     3.312166    -0.624331     0.000000
      51     O        2         3.312166     3.312166    -0.624331    -0.000000
      52     O        2         3.312166     3.312166    -0.624331     0.000000
      53     O        2         3.312166     3.312166    -0.624331     0.000000
      54     O        2         3.312166     3.312166    -0.624331     0.000000
      55     O        2         3.312501     3.312501    -0.625002     0.000000
      56     O        2         3.312501     3.312501    -0.625002     0.000000
      57     O        2         3.312501     3.312501    -0.625002     0.000000
      58     O        2         3.312501     3.312501    -0.625002     0.000000
      59     O        2         3.312501     3.312501    -0.625002     0.000000
      60     O        2         3.312501     3.312501    -0.625002     0.000000
      61     O        2         3.312501     3.312501    -0.625002    -0.000000
      62     O        2         3.312501     3.312501    -0.625002     0.000000
      63     O        2         3.312501     3.312501    -0.625002     0.000000
      64     O        2         3.312166     3.312166    -0.624331     0.000000
      65     O        2         3.312166     3.312166    -0.624331     0.000000
      66     O        2         3.312166     3.312166    -0.624331     0.000000
      67     O        2         3.312166     3.312166    -0.624331     0.000000
      68     O        2         3.312166     3.312166    -0.624331     0.000000
      69     O        2         3.312166     3.312166    -0.624331     0.000000
      70     O        2         3.312166     3.312166    -0.624331    -0.000000
      71     O        2         3.312166     3.312166    -0.624331    -0.000000
      72     O        2         3.312166     3.312166    -0.624331     0.000000
      73     O        2         3.312166     3.312166    -0.624331     0.000000
      74     O        2         3.312166     3.312166    -0.624331     0.000000
      75     O        2         3.312166     3.312166    -0.624331     0.000000
      76     O        2         3.312166     3.312166    -0.624331     0.000000
      77     O        2         3.312166     3.312166    -0.624331     0.000000
      78     O        2         3.312166     3.312166    -0.624331     0.000000
      79     O        2         3.312166     3.312166    -0.624331     0.000000
      80     O        2         3.312166     3.312166    -0.624331     0.000000
      81     O        2         3.312166     3.312166    -0.624331     0.000000
      82     O        2         3.312166     3.312166    -0.624331     0.000000
      83     O        2         3.312166     3.312166    -0.624331     0.000000
      84     O        2         3.312166     3.312166    -0.624331     0.000000
      85     O        2         3.312166     3.312166    -0.624331     0.000000
      86     O        2         3.312166     3.312166    -0.624331     0.000000
      87     O        2         3.312166     3.312166    -0.624331     0.000000
      88     O        2         3.312166     3.312166    -0.624331     0.000000
      89     O        2         3.312166     3.312166    -0.624331     0.000000
      90     O        2         3.312166     3.312166    -0.624331     0.000000
      91     O        2         3.312166     3.312166    -0.624331     0.000000
      92     O        2         3.312166     3.312166    -0.624331     0.000000
      93     O        2         3.312166     3.312166    -0.624331     0.000000
      94     O        2         3.312166     3.312166    -0.624331     0.000000
      95     O        2         3.312166     3.312166    -0.624331     0.000000
      96     O        2         3.312166     3.312166    -0.624331    -0.000000
      97     O        2         3.312166     3.312166    -0.624331    -0.000000
      98     O        2         3.312166     3.312166    -0.624331     0.000000
      99     O        2         3.312166     3.312166    -0.624331     0.000000
     100     O        2         3.312501     3.312501    -0.625001     0.000000
     101     O        2         3.312501     3.312501    -0.625001     0.000000
     102     O        2         3.312501     3.312501    -0.625001     0.000000
     103     O        2         3.312501     3.312501    -0.625001     0.000000
     104     O        2         3.312501     3.312501    -0.625001     0.000000
     105     O        2         3.312501     3.312501    -0.625001     0.000000
     106     O        2         3.312501     3.312501    -0.625001     0.000000
     107     O        2         3.312501     3.312501    -0.625001     0.000000
     108     O        2         3.312501     3.312501    -0.625001     0.000000
     109     O        2         3.312166     3.312166    -0.624331     0.000000
     110     O        2         3.312166     3.312166    -0.624331     0.000000
     111     O        2         3.312166     3.312166    -0.624331     0.000000
     112     O        2         3.312166     3.312166    -0.624331     0.000000
     113     O        2         3.312166     3.312166    -0.624331     0.000000
     114     O        2         3.312166     3.312166    -0.624331     0.000000
     115     O        2         3.312166     3.312166    -0.624331     0.000000
     116     O        2         3.312166     3.312166    -0.624331    -0.000000
     117     O        2         3.312166     3.312166    -0.624331     0.000000
     118     O        2         3.312501     3.312501    -0.625002     0.000000
     119     O        2         3.312501     3.312501    -0.625002     0.000000
     120     O        2         3.312501     3.312501    -0.625002    -0.000000
     121     O        2         3.312501     3.312501    -0.625002     0.000000
     122     O        2         3.312501     3.312501    -0.625002     0.000000
     123     O        2         3.312501     3.312501    -0.625002     0.000000
     124     O        2         3.312501     3.312501    -0.625002    -0.000000
[...]
        23  Bi  3pz             -0.051959
        23  Bi  3px              0.039365
        26  Bi  2s               0.018410
        26  Bi  3py             -0.014571
        26  Bi  3pz             -0.051959
        26  Bi  3px             -0.039365
        31  Bi  3py             -0.013423
        31  Bi  3pz              0.014915
        31  Bi  3px             -0.015678
        32  Bi  3py             -0.014218
        32  Bi  3pz              0.012289
        32  Bi  3px              0.010332
        34  Bi  3py              0.014218
        34  Bi  3pz              0.012290
        34  Bi  3px             -0.010332
        35  Bi  3py              0.013423
        35  Bi  3pz              0.014915
        35  Bi  3px              0.015678
        38  O   2s              -0.010333
        50  O   2s              -0.477429
        50  O   3py              0.134429
        50  O   3pz              0.165496
        50  O   3px              0.013264
        58  O   3pz              0.010786
        77  O   2s              -0.477429
        77  O   3py             -0.134429
        77  O   3pz              0.165496
        77  O   3px             -0.013264
       112  O   2s               0.010187
       122  O   2s               0.484700
       122  O   3py              0.096371
       122  O   3pz              0.178762
       122  O   3px             -0.079958
       150  O   2s               0.010187
       158  O   2s               0.484699
       158  O   3py             -0.096371
       158  O   3pz              0.178762
       158  O   3px              0.079958
       167  O   3pz              0.010786
       179  O   2s              -0.010333
       185  V   3s               0.040271
       185  V   4d+1             0.013671
       188  V   3s               0.040271
       188  V   4d+1            -0.013671
       193  V   3s              -0.039719
       193  V   4d-1             0.013405
       194  V   3s              -0.039719
       194  V   4d-1            -0.013405
       212  V   3pz             -0.061510
       212  V   4d-2             0.093066
       212  V   4d+2            -0.056717
  EIG. VAL/OCC. =     0.985746 /    0.971696
 -----------------------------
        13  Bi  3py             -0.011579
        13  Bi  3pz             -0.024365
        14  Bi  3py             -0.011579
        14  Bi  3pz              0.024365
        23  Bi  3pz              0.017115
        26  Bi  3pz             -0.017115
        31  Bi  3py             -0.025579
        31  Bi  3px             -0.030700
        32  Bi  3px              0.023124
        34  Bi  3px              0.023124
        35  Bi  3py             -0.025579
        35  Bi  3px             -0.030700
        50  O   2s               0.325245
        50  O   3py             -0.014823
        50  O   3pz              0.195528
        50  O   3px             -0.253250
        58  O   3py              0.011276
        58  O   3pz             -0.011544
        77  O   2s              -0.325245
        77  O   3py             -0.014824
        77  O   3pz             -0.195528
        77  O   3px             -0.253250
       112  O   2s              -0.012287
       122  O   2s              -0.046906
       122  O   3py              0.344789
       122  O   3pz             -0.260774
       122  O   3px              0.345675
       150  O   2s               0.012287
       158  O   2s               0.046907
       158  O   3py              0.344789
       158  O   3pz              0.260774
       158  O   3px              0.345676
       167  O   3py              0.011277
       167  O   3pz              0.011544
       193  V   3s               0.051428
       193  V   4d-1            -0.015322
       194  V   3s              -0.051428
       194  V   4d-1            -0.015322
       212  V   3py             -0.064629
       212  V   3px             -0.032456
       212  V   4d-1             0.030701
       212  V   4d+1             0.027756
  EIG. VAL/OCC. =     0.986777 /    0.973728
 -----------------------------
        13  Bi  3pz              0.016492
        14  Bi  3pz             -0.016492
        23  Bi  3pz              0.024512
        23  Bi  3px             -0.012555
        26  Bi  3pz             -0.024512
        26  Bi  3px             -0.012555
        31  Bi  3py             -0.024284
        32  Bi  3py              0.031485
        32  Bi  3px             -0.026193
        34  Bi  3py              0.031485
        34  Bi  3px             -0.026193
        35  Bi  3py             -0.024283
        38  O   2s              -0.011514
        50  O   2s               0.054102
        50  O   3py             -0.349695
        50  O   3pz             -0.264184
        50  O   3px              0.321557
        77  O   2s              -0.054102
        77  O   3py             -0.349695
        77  O   3pz              0.264184
        77  O   3px              0.321557
        86  O   3pz              0.010862
        86  O   3px              0.010876
       122  O   2s               0.347025
       122  O   3py              0.248661
       122  O   3pz             -0.189698
       122  O   3px             -0.023896
       131  O   3pz             -0.010862
       131  O   3px              0.010876
       158  O   2s              -0.347025
       158  O   3py              0.248661
       158  O   3pz              0.189698
       158  O   3px             -0.023896
       179  O   2s               0.011514
       185  V   3s               0.048154
       185  V   4d+1             0.014575
       188  V   3s              -0.048154
       188  V   4d+1             0.014575
       212  V   3py              0.032827
       212  V   3px             -0.065726
       212  V   4d-1             0.028860
       212  V   4d+1            -0.031361
 NOTE: IF SOME ORBS ARE EXCLUDED CHECK THE TOTAL CHRG MIGHT NOT REFLECT THE WHOLE FRG CHRG
   MOA FOR FRAGMENTS
   -----------------
  FRAG   POP         CHRG          SPIN
      ----------------------------------------------------
    1     12.10131      0.89869      0.00000
    2     12.10131      0.89869      0.00000
    3     26.09711     -2.09711      0.00000
    4     26.09711     -2.09711      0.00000
 ..... END OF MOA ANALYSIS FOR FRAGEMENTS .....
  
 ..... END OF MOA ANALYSIS .....

 ENERGY| Total FORCE_EVAL ( QS ) energy (a.u.):            -5074.031285427691728


 -------------------------------------------------------------------------------
 -                                                                             -
 -                                DBCSR STATISTICS                             -
 -                                                                             -
 -------------------------------------------------------------------------------
 COUNTER                                    TOTAL       BLAS       SMM       ACC
 flops    10 x    20 x    10             15552000     100.0%      0.0%      0.0%
 flops    10 x    20 x     4             31104000     100.0%      0.0%      0.0%
 flops     4 x    20 x    10             31104000     100.0%      0.0%      0.0%
 flops     4 x    20 x     4             62208000     100.0%      0.0%      0.0%
 flops    10 x    10 x    52             83116800     100.0%      0.0%      0.0%
 flops    10 x     4 x    52            161740800     100.0%      0.0%      0.0%
 flops     4 x    10 x    52            161740800     100.0%      0.0%      0.0%
 flops     4 x     4 x    52            325278720     100.0%      0.0%      0.0%
 flops    10 x    10 x    32            409190400     100.0%      0.0%      0.0%
 flops    10 x    32 x    10            572313600     100.0%      0.0%      0.0%
 flops    10 x    10 x    64            716083200     100.0%      0.0%      0.0%
 flops    10 x     4 x    32            796262400     100.0%      0.0%      0.0%
 flops     4 x    10 x    32            796262400     100.0%      0.0%      0.0%
 flops    10 x    32 x     4           1144627200     100.0%      0.0%      0.0%
 flops     4 x    32 x    10           1144627200     100.0%      0.0%      0.0%
 flops    10 x     4 x    64           1393459200     100.0%      0.0%      0.0%
 flops     4 x    10 x    64           1393459200     100.0%      0.0%      0.0%
 flops     4 x     4 x    32           1601372160     100.0%      0.0%      0.0%
 flops     4 x    32 x     4           2289254400     100.0%      0.0%      0.0%
 flops     4 x     4 x    64           2802401280     100.0%      0.0%      0.0%
 flops inhomo. stacks                           0       0.0%      0.0%      0.0%
 flops total                        15.931158E+09     100.0%      0.0%      0.0%
 flops max/rank                    159.895296E+06     100.0%      0.0%      0.0%
 matmuls inhomo. stacks                         0       0.0%      0.0%      0.0%
 matmuls total                            7858944     100.0%      0.0%      0.0%
 number of processed stacks                123648     100.0%      0.0%      0.0%
 average stack size                                    63.6       0.0       0.0
 marketing flops                    26.453946E+09
 -------------------------------------------------------------------------------
 # multiplications                             15
 max memory usage/rank             230.391808E+06
 # max total images/rank                        2
 # max 3D layers                                1
 # MPI messages exchanged                   86400
 MPI messages size (bytes):
  total size                         3.065299E+09
  min size                          16.384000E+03
  max size                          76.160000E+03
  average size                      35.478000E+03
 MPI breakdown and total messages size (bytes):
             size <=      128                   0                        0
       128 < size <=     8192                   0                        0
      8192 < size <=    32768               33660                640039680
     32768 < size <=   131072               52740               2425259520
    131072 < size <=  4194304                   0                        0
   4194304 < size <= 16777216                   0                        0
  16777216 < size                               0                        0
 -------------------------------------------------------------------------------

 *** WARNING in dbcsr/mm/dbcsr_mm.F:268 :: Using a non-square number of ***
 *** MPI ranks might lead to poor performance.                          ***
 *** Used ranks: 128                                                    ***
 *** Suggested: 121 256                                                 ***

 -------------------------------------------------------------------------------

 MEMORY| Estimated peak process memory [MiB]                                 280

 -------------------------------------------------------------------------------
 ----                             MULTIGRID INFO                            ----
 -------------------------------------------------------------------------------
 count for grid        1:        1682504          cutoff [a.u.]          325.00
 count for grid        2:        1129120          cutoff [a.u.]          108.33
 count for grid        3:         901636          cutoff [a.u.]           36.11
 count for grid        4:        1099684          cutoff [a.u.]           12.04
 count for grid        5:         519832          cutoff [a.u.]            4.01
 count for grid        6:              0          cutoff [a.u.]            1.34
 count for grid        7:              0          cutoff [a.u.]            0.45
 count for grid        8:              0          cutoff [a.u.]            0.15
 count for grid        9:              0          cutoff [a.u.]            0.05
 count for grid       10:              0          cutoff [a.u.]            0.02
 total gridlevel count  :        5332776

 -------------------------------------------------------------------------------
 -                                                                             -
 -                         MESSAGE PASSING PERFORMANCE                         -
 -                                                                             -
 -------------------------------------------------------------------------------

 ROUTINE             CALLS      AVE VOLUME [Bytes]
 MP_Group               30
 MP_Bcast             2989                 201189.
 MP_Allreduce         9100                  45338.
 MP_Sync              1606
 MP_Alltoall           780
 MP_ISendRecv        22352                   3833.
 MP_Wait             26378
 MP_comm_split        1331
 MP_ISend             4012                 128106.
 MP_IRecv             4092                 125391.
 MP_Recv                46                 276480.
 MP_Memory             962
 -------------------------------------------------------------------------------


 -------------------------------------------------------------------------------
 -                                                                             -
 -                           R E F E R E N C E S                               -
 -                                                                             -
 -------------------------------------------------------------------------------
 
 CP2K version 6.1, the CP2K developers group (2018).
 CP2K is freely available from https://www.cp2k.org/ .

 Schuett, Ole; Messmer, Peter; Hutter, Juerg; VandeVondele, Joost. 
 Electronic Structure Calculations on Graphics Processing Units, John Wiley & Sons, Ltd, 173-190 (2016). 
 GPU-Accelerated Sparse Matrix-Matrix Multiplication for Linear Scaling Density Functional Theory.
 http://dx.doi.org/10.1002/9781118670712.ch8


 Borstnik, U; VandeVondele, J; Weber, V; Hutter, J. 
 PARALLEL COMPUTING, 40 (5-6), 47-58 (2014). 
 Sparse matrix multiplication: The distributed block-compressed sparse
 row library.
 http://dx.doi.org/10.1016/j.parco.2014.03.012


 Hutter, J; Iannuzzi, M; Schiffmann, F; VandeVondele, J. 
 WILEY INTERDISCIPLINARY REVIEWS-COMPUTATIONAL MOLECULAR SCIENCE, 4 (1), 15-25 (2014). 
 CP2K: atomistic simulations of condensed matter systems.
 http://dx.doi.org/10.1002/wcms.1159


 VandeVondele, J; Hutter, J. 
 JOURNAL OF CHEMICAL PHYSICS, 127 (11), 114105 (2007). 
 Gaussian basis sets for accurate calculations on molecular systems in
 gas and condensed phases.
 http://dx.doi.org/10.1063/1.2770708


 Krack, M. 
 THEORETICAL CHEMISTRY ACCOUNTS, 114 (1-3), 145-152 (2005). 
 Pseudopotentials for H to Kr optimized for gradient-corrected
 exchange-correlation functionals.
 http://dx.doi.org/10.1007/s00214-005-0655-y


 VandeVondele, J; Krack, M; Mohamed, F; Parrinello, M; Chassaing, T;
 Hutter, J. COMPUTER PHYSICS COMMUNICATIONS, 167 (2), 103-128 (2005). 
 QUICKSTEP: Fast and accurate density functional calculations using a
 mixed Gaussian and plane waves approach.
 http://dx.doi.org/10.1016/j.cpc.2004.12.014


 Frigo, M; Johnson, SG. 
 PROCEEDINGS OF THE IEEE, 93 (2), 216-231 (2005). 
 The design and implementation of FFTW3.
 http://dx.doi.org/10.1109/JPROC.2004.840301


 Hartwigsen, C; Goedecker, S; Hutter, J. 
 PHYSICAL REVIEW B, 58 (7), 3641-3662 (1998). 
 Relativistic separable dual-space Gaussian pseudopotentials from H to Rn.
 http://dx.doi.org/10.1103/PhysRevB.58.3641


 Dudarev, SL; Botton, GA; Savrasov, SY; Humphreys, CJ; Sutton, AP. 
 PHYSICAL REVIEW B, 57 (3), 1505-1509 (1998). 
 Electron-energy-loss spectra and the structural stability of
 nickel oxide: An LSDA+U study.
 http://dx.doi.org/10.1103/PhysRevB.57.1505


 Lippert, G; Hutter, J; Parrinello, M. 
 MOLECULAR PHYSICS, 92 (3), 477-487 (1997). 
 A hybrid Gaussian and plane wave density functional scheme.
 http://dx.doi.org/10.1080/002689797170220


 Dudarev, SL; Manh, DN; Sutton, AP. 
 PHILOSOPHICAL MAGAZINE B, 75 (5), 613-628 (1997). 
 Effect of Mott-Hubbard correlations on the electronic
 structure and structural stability of uranium dioxide.
 http://dx.doi.org/10.1080/13642819708202343


 Perdew, JP; Burke, K; Ernzerhof, M. 
 PHYSICAL REVIEW LETTERS, 77 (18), 3865-3868 (1996). 
 Generalized gradient approximation made simple.
 http://dx.doi.org/10.1103/PhysRevLett.77.3865


 Goedecker, S; Teter, M; Hutter, J. 
 PHYSICAL REVIEW B, 54 (3), 1703-1710 (1996). 
 Separable dual-space Gaussian pseudopotentials.
 http://dx.doi.org/10.1103/PhysRevB.54.1703


 -------------------------------------------------------------------------------
 -                                                                             -
 -                                T I M I N G                                  -
 -                                                                             -
 -------------------------------------------------------------------------------
 SUBROUTINE                       CALLS  ASD         SELF TIME        TOTAL TIME
                                MAXIMUM       AVERAGE  MAXIMUM  AVERAGE  MAXIMUM
 CP2K                                 1  1.0    0.181    0.192   99.394   99.396
 qs_energies                          1  2.0    0.022    0.024   98.503   98.507
 qs_energies_properties               1  3.0    0.000    0.000   61.704   61.708
 maximal_orbital_analysis             1  4.0    3.752    3.864   61.704   61.708
 moax_frg                             4  5.0   47.497   48.769   56.469   56.472
 scf_env_do_scf                       1  3.0    0.000    0.000   30.469   30.602
 scf_env_do_scf_inner_loop            5  4.0    0.001    0.011   30.469   30.602
 qs_rho_update_rho                    6  5.0    0.000    0.000   15.758   15.759
 calculate_rho_elec                  12  6.0   13.882   14.186   15.758   15.759
 qs_ks_update_qs_env                  5  5.0    0.000    0.000   14.429   14.993
 rebuild_ks_matrix                    5  6.0    0.000    0.000   14.424   14.988
 qs_ks_build_kohn_sham_matrix         5  7.0    0.780    1.344   14.424   14.988
 sum_up_and_integrate                 5  8.0    0.003    0.003   11.913   11.913
 integrate_v_rspace                  10  9.0   10.501   10.729   11.910   11.912
 cp_fm_syevd                       1331  6.0    0.003    0.005    7.867    8.003
 cp_fm_redistribute_end            1331  7.0    5.522    6.254    5.787    6.629
 cp_fm_syevd_base                  1331  7.1    0.696    4.904    0.696    4.904
 init_scf_run                         1  3.0    0.000    0.000    3.912    3.912
 scf_env_initial_rho_setup            1  4.0    0.000    0.000    3.747    3.747
 qs_scf_new_mos                       5  5.0    0.000    0.000    2.548    3.238
 cp_gemm                            127  6.5    0.000    0.000    2.094    3.113
 cp_gemm_fm_gemm                    127  7.5    0.000    0.001    2.094    3.112
 cp_fm_gemm                         127  8.5    2.094    3.112    2.094    3.112
 rs_pw_transfer                     224  9.3    0.002    0.002    2.299    2.794
 pw_transfer                        326  9.4    0.015    0.017    2.234    2.338
 fft_wrap_pw1pw2                    316 10.4    0.002    0.002    2.214    2.316
 fft_wrap_pw1pw2_330                118 11.5    0.086    0.093    2.056    2.160
 fft3d_ps                           316 12.4    0.538    0.601    1.979    2.113
 qs_energies_init_hamiltonians        1  3.0    0.029    0.030    1.998    1.999
 -------------------------------------------------------------------------------

 The number of warnings for this run is : 1
 
 -------------------------------------------------------------------------------
  **** **** ******  **  PROGRAM ENDED AT                 2020-04-22 07:53:16.133
 ***** ** ***  *** **   PROGRAM RAN ON            cpn-u22-14.cbls.ccr.buffalo.ed
 **    ****   ******    PROGRAM RAN BY                                  pavankum
 ***** **    ** ** **   PROGRAM PROCESS ID                                168444
  **** **  *******  **  PROGRAM STOPPED IN /projects/academic/mdupuis2/pavan/MOA
                                           /BVO/neutral
