     216
 i =        1, E =     -5074.0310707810
 Bi         2.5892879961        1.2733465946       10.2348697358
 Bi         2.5552405824        6.3667329078       10.2348697543
 Bi         2.5211931659       11.4601193500       10.2348697552
 Bi         7.7848878760        1.2733466116       10.2348697523
 Bi         7.7508404902        6.3667329294       10.2348697942
 Bi         7.7167930194       11.4601193317       10.2348697764
 Bi        12.9804879523        1.2733465138       10.2348697218
 Bi        12.9464405167        6.3667328570       10.2348696799
 Bi        12.9123931001       11.4601193149       10.2348696865
 Bi         2.5722642262        3.8200395381        1.4696318676
 Bi         2.5382168526        8.9134260066        1.4696318513
 Bi         2.5041694774       14.0068122707        1.4696319273
 Bi         7.7678641542        3.8200395590        1.4696318612
 Bi         7.7338167521        8.9134260332        1.4696318613
 Bi         7.6997693724       14.0068122769        1.4696319014
 Bi        12.9634641830        3.8200395162        1.4696319148
 Bi        12.9294168187        8.9134259764        1.4696318964
 Bi        12.8953693399       14.0068121925        1.4696319944
 Bi        -0.0085115489        1.2733470164        7.3218836678
 Bi        -0.0425589489        6.3667333297        7.3218836936
 Bi        -0.0766063552       11.4601197355        7.3218837280
 Bi         5.1870883819        1.2733470157        7.3218837213
 Bi         5.1530409792        6.3667333219        7.3218837391
 Bi         5.1189935243       11.4601196816        7.3218837958
 Bi        10.3826880787        1.2733470327        7.3218837920
 Bi        10.3486406648        6.3667333455        7.3218837561
 Bi        10.3145932244       11.4601196621        7.3218838341
 Bi        -0.0255356142        3.8200398245        4.3826191934
 Bi        -0.0595830189        8.9134262590        4.3826191971
 Bi        -0.0936304398       14.0068124890        4.3826191645
 Bi         5.1700642919        3.8200397978        4.3826191499
 Bi         5.1360168904        8.9134262600        4.3826191531
 Bi         5.1019695056       14.0068124685        4.3826191723
 Bi        10.3656639855        3.8200398012        4.3826191695
 Bi        10.3316166276        8.9134262641        4.3826191345
 Bi        10.2975691663       14.0068124922        4.3826191992
  O         3.8907624525        1.9872501192        0.5225872121
  O         3.8567149796        7.0806363915        0.5225872035
  O         3.8226675204       12.1740225440        0.5225872198
  O         9.0863618572        1.9872500275        0.5225873184
  O         9.0523143666        7.0806362917        0.5225873216
  O         9.0182668895       12.1740224129        0.5225873196
  O        14.2819621198        1.9872501771        0.5225871791
  O        14.2479146271        7.0806364203        0.5225871842
  O        14.2138671750       12.1740225585        0.5225871911
  O         3.3052474411        2.5462277627        3.4484474274
  O         3.2712000386        7.6396139695        3.4484473756
  O         3.2371526850       12.7330002898        3.4484473455
  O         8.5008469356        2.5462278483        3.4484474077
  O         8.4667995431        7.6396140530        3.4484473584
  O         8.4327521497       12.7330003673        3.4484473439
  O        13.6964474389        2.5462277516        3.4484473630
  O        13.6623999998        7.6396139534        3.4484473296
  O        13.6283526269       12.7330002708        3.4484473001
  O         1.2759395458        4.5339465199        6.3748356458
  O         1.2418922354        9.6273331722        6.3748356338
  O         1.2078448023       14.7207195254        6.3748356375
  O         6.4715398044        4.5339466689        6.3748354859
  O         6.4374925011        9.6273333315        6.3748354779
  O         6.4034450752       14.7207196824        6.3748354852
  O        11.6671398029        4.5339466145        6.3748355305
  O        11.6330925306        9.6273332747        6.3748355236
  O        11.5990450490       14.7207196300        6.3748355289
  O         0.7244702957       -0.0004640554        9.3006962971
  O         0.6904229114        5.0929221887        9.3006962414
  O         0.6563754564       10.1863087401        9.3006963343
  O         5.9200707249       -0.0004641768        9.3006962965
  O         5.8860233337        5.0929220753        9.3006962488
  O         5.8519758323       10.1863085958        9.3006963327
  O        11.1156704181       -0.0004641531        9.3006963354
  O        11.0816230447        5.0929220858        9.3006962872
  O        11.0475756013       10.1863086309        9.3006963710
  O         1.7711861732       15.2806244903        3.4484472829
  O         1.8392810600        5.0938516435        3.4484473159
  O         1.8052335688       10.1872382033        3.4484472540
  O         6.9667866291       15.2806243634        3.4484473096
  O         7.0348814729        5.0938515122        3.4484473332
  O         7.0008339926       10.1872380728        3.4484472694
  O        12.1623860978       15.2806244421        3.4484473289
  O        12.2304809391        5.0938515811        3.4484473437
  O        12.1964334906       10.1872381557        3.4484472923
  O         0.7074462443        2.5462289473        2.4038043923
  O         0.6733988365        7.6396151196        2.4038044281
  O         0.6393514696       12.7330014915        2.4038044767
  O         5.9030466537        2.5462288126        2.4038044055
  O         5.8689992658        7.6396149899        2.4038044465
  O         5.8349518820       12.7330013502        2.4038044879
  O        11.0986464378        2.5462288403        2.4038043807
  O        11.0645990495        7.6396150154        2.4038044164
  O        11.0305516174       12.7330013718        2.4038044542
  O         4.4541055377        2.5471576389        9.3006961651
  O         4.4200581311        7.6405439300        9.3006962034
  O         4.3860107791       12.7339301469        9.3006962588
  O         9.6497052452        2.5471576572        9.3006961207
  O         9.6156578831        7.6405439487        9.3006961680
  O         9.5816104394       12.7339301502        9.3006962107
  O        14.8453057015        2.5471575380        9.3006961524
  O        14.8112583188        7.6405438296        9.3006961873
  O        14.7772109270       12.7339300598        9.3006962320
  O         1.2707898183        3.1061364238       11.1819135909
  O         1.2367422792        8.1995225271       11.1819135865
  O         1.2026948830       13.2929089224       11.1819135968
  O         6.4663900923        3.1061366059       11.1819134367
  O         6.4323425587        8.1995227081       11.1819134280
  O         6.3982951800       13.2929091198       11.1819134442
  O        11.6619894472        3.1061364354       11.1819135576
  O        11.6279419298        8.1995225658       11.1819135547
  O        11.5938945098       13.2929089681       11.1819135497
  O         1.8563049433        2.5471587619        8.2560532539
  O         1.8222575517        7.6405450578        8.2560532099
  O         1.7882101750       12.7339313180        8.2560531689
  O         7.0519053804        2.5471586410        8.2560532454
  O         7.0178580047        7.6405449388        8.2560531989
  O         6.9838105969       12.7339311790        8.2560531538
  O        12.2475049054        2.5471587180        8.2560532125
  O        12.2134575251        7.6405450145        8.2560531626
  O        12.1794100659       12.7339312598        8.2560531307
  O         3.8856126422        0.5594395568        5.3296649931
  O         3.8515651857        5.6528258160        5.3296649905
  O         3.8175178620       10.7462124887        5.3296649908
  O         9.0812126428        0.5594395437        5.3296650355
  O         9.0471651637        5.6528257827        5.3296650226
  O         9.0131178563       10.7462124388        5.3296650190
  O        14.2768129097        0.5594397079        5.3296648955
  O        14.2427654218        5.6528259630        5.3296648781
  O        14.2087181348       10.7462126370        5.3296648840
  O         4.3689870685       15.2806232701        2.4038043426
  O         4.4370819312        5.0938504183        2.4038042899
  O         4.4030344513       10.1872369479        2.4038043683
  O         9.5645867833       15.2806232875        2.4038043822
  O         9.6326816231        5.0938504295        2.4038043466
  O         9.5986341741       10.1872369509        2.4038044100
  O        14.7601872088       15.2806231844        2.4038043591
  O        14.8282820797        5.0938503406        2.4038043245
  O        14.7942346414       10.1872368698        2.4038043828
  O         3.8737387467        4.5339427394       11.1819135561
  O         3.8396914041        9.6273293948       11.1819135574
  O         3.8056440089       14.7207157187       11.1819135351
  O         9.0693380992        4.5339426172       11.1819134602
  O         9.0352907765        9.6273292732       11.1819134482
  O         9.0012433547       14.7207155935       11.1819134371
  O        14.2649384200        4.5339427877       11.1819135787
  O        14.2308910872        9.6273294262       11.1819135679
  O        14.1968436685       14.7207157391       11.1819135740
  O         3.3222713704       -0.0004651197        8.2560532717
  O         3.2882239884        5.0929211478        8.2560533273
  O         3.2541764908       10.1863077139        8.2560532514
  O         8.5178708230       -0.0004650292        8.2560532690
  O         8.4838234261        5.0929212471        8.2560533216
  O         8.4497759412       10.1863077962        8.2560532611
  O        13.7134712739       -0.0004651612        8.2560533096
  O        13.6794239015        5.0929211272        8.2560533708
  O        13.6453764576       10.1863077036        8.2560532998
  O         1.2929629077        1.9872538043        5.3296647833
  O         1.2589154377        7.0806400409        5.3296647787
  O         1.2248679966       12.1740262475        5.3296647891
  O         6.4885632103        1.9872539896        5.3296649290
  O         6.4545157483        7.0806402312        5.3296649300
  O         6.4204682898       12.1740264038        5.3296649546
  O        11.6841632322        1.9872539387        5.3296648904
  O        11.6501157292        7.0806401530        5.3296648919
  O        11.6160682850       12.1740263567        5.3296649192
  O         3.8685891120        3.1061333077        6.3748355764
  O         3.8345416072        8.1995194388        6.3748356054
  O         3.8004941970       13.2929057422        6.3748355745
  O         9.0641891077        3.1061332846        6.3748355536
  O         9.0301416143        8.1995194182        6.3748355795
  O         8.9960941812       13.2929057029        6.3748355522
  O        14.2597894209        3.1061334889        6.3748356661
  O        14.2257419281        8.1995196213        6.3748357024
  O        14.1916944622       13.2929058893        6.3748356724
  O         1.2878138941        0.5594428592        0.5225871722
  O         1.2537664199        5.6528290624        0.5225871635
  O         1.2197191075       10.7462158133        0.5225871633
  O         6.4834141941        0.5594430534        0.5225873233
  O         6.4493667195        5.6528292520        0.5225873220
  O         6.4153193778       10.7462159913        0.5225873297
  O        11.6790135409        0.5594428872        0.5225871998
  O        11.6449660331        5.6528290833        0.5225871943
  O        11.6109187337       10.7462158474        0.5225871950
  V        -0.0085118390        1.2733465317        1.4486427126
  V        -0.0425592908        6.3667327539        1.4486427133
  V        -0.0766066855       11.4601192001        1.4486427385
  V         5.1870881720        1.2733464982        1.4486427305
  V         5.1530407206        6.3667327159        1.4486427394
  V         5.1189933060       11.4601191524        1.4486427816
  V        10.3826877822        1.2733465541        1.4486427316
  V        10.3486403167        6.3667327682        1.4486427510
  V        10.3145929041       11.4601191896        1.4486427586
  V         2.5722644227        3.8200400950        7.3008901407
  V         2.5382170049        8.9134264871        7.3008901608
  V         2.5041695796       14.0068127844        7.3008901058
  V         7.7678644356        3.8200400692        7.3008900886
  V         7.7338170235        8.9134264573        7.3008901030
  V         7.6997695924       14.0068127405        7.3008900761
  V        12.9634644756        3.8200400383        7.3008901229
  V        12.9294170952        8.9134264465        7.3008901575
  V        12.8953696106       14.0068127105        7.3008901009
  V        -0.0255355728        3.8200398150       10.2558580766
  V        -0.0595829837        8.9134262142       10.2558580573
  V        -0.0936304133       14.0068125178       10.2558580776
  V         5.1700644307        3.8200397856       10.2558580549
  V         5.1360169954        8.9134261583       10.2558580568
  V         5.1019695902       14.0068124781       10.2558580614
  V        10.3656640223        3.8200398216       10.2558580880
  V        10.3316166122        8.9134262194       10.2558580789
  V        10.2975691495       14.0068125176       10.2558580637
  V         2.5892878630        1.2733465866        4.4036107375
  V         2.5552404113        6.3667328227        4.4036107155
  V         2.5211930035       11.4601192461        4.4036107123
  V         7.7848878986        1.2733465642        4.4036107770
  V         7.7508404349        6.3667328003        4.4036107429
  V         7.7167930343       11.4601192059        4.4036107614
  V        12.9804879277        1.2733465493        4.4036107058
  V        12.9464404453        6.3667327627        4.4036106804
  V        12.9123930547       11.4601191863        4.4036107166
     216
 i =        2, E =     -5074.0267413127
 Bi         2.5892879961        1.2733465946       10.2348697358
 Bi         2.5552405824        6.3667329078       10.2348697543
 Bi         2.5211931659       11.4601193500       10.2348697552
 Bi         7.7848878760        1.2733466116       10.2348697523
 Bi         7.7508404902        6.3667329294       10.2348697942
 Bi         7.7167930194       11.4601193317       10.2348697764
 Bi        12.9804879523        1.2733465138       10.2348697218
 Bi        12.9464405167        6.3667328570       10.2348696799
 Bi        12.9123931001       11.4601193149       10.2348696865
 Bi         2.5722642262        3.8200395381        1.4696318676
 Bi         2.5382168526        8.9134260066        1.4696318513
 Bi         2.5041694774       14.0068122707        1.4696319273
 Bi         7.7678641542        3.8200395590        1.4696318612
 Bi         7.7338167521        8.9134260332        1.4696318613
 Bi         7.6997693724       14.0068122769        1.4696319014
 Bi        12.9634641830        3.8200395162        1.4696319148
 Bi        12.9294168187        8.9134259764        1.4696318964
 Bi        12.8953693399       14.0068121925        1.4696319944
 Bi        -0.0085115489        1.2733470164        7.3218836678
 Bi        -0.0425589489        6.3667333297        7.3218836936
 Bi        -0.0766063552       11.4601197355        7.3218837280
 Bi         5.1870883819        1.2733470157        7.3218837213
 Bi         5.1530409792        6.3667333219        7.3218837391
 Bi         5.1189935243       11.4601196816        7.3218837958
 Bi        10.3826880787        1.2733470327        7.3218837920
 Bi        10.3486406648        6.3667333455        7.3218837561
 Bi        10.3145932244       11.4601196621        7.3218838341
 Bi        -0.0255356142        3.8200398245        4.3826191934
 Bi        -0.0595830189        8.9134262590        4.3826191971
 Bi        -0.0936304398       14.0068124890        4.3826191645
 Bi         5.1700642919        3.8200397978        4.3826191499
 Bi         5.1360168904        8.9134262600        4.3826191531
 Bi         5.1019695056       14.0068124685        4.3826191723
 Bi        10.3656639855        3.8200398012        4.3826191695
 Bi        10.3316166276        8.9134262641        4.3826191345
 Bi        10.2975691663       14.0068124922        4.3826191992
  O         3.8907624525        1.9872501192        0.5225872121
  O         3.8567149796        7.0806363915        0.5225872035
  O         3.8226675204       12.1740225440        0.5225872198
  O         9.0863618572        1.9872500275        0.5225873184
  O         9.0523143666        7.0806362917        0.5225873216
  O         9.0182668895       12.1740224129        0.5225873196
  O        14.2819621198        1.9872501771        0.5225871791
  O        14.2479146271        7.0806364203        0.5225871842
  O        14.2138671750       12.1740225585        0.5225871911
  O         3.3052474411        2.5462277627        3.4484474274
  O         3.2712000386        7.6396139695        3.4484473756
  O         3.2371526850       12.7330002898        3.4484473455
  O         8.5008469356        2.5462278483        3.4484474077
  O         8.4667995431        7.6396140530        3.4484473584
  O         8.4327521497       12.7330003673        3.4484473439
  O        13.6964474389        2.5462277516        3.4484473630
  O        13.6623999998        7.6396139534        3.4484473296
  O        13.6283526269       12.7330002708        3.4484473001
  O         1.2759395458        4.5339465199        6.3748356458
  O         1.2418922354        9.6273331722        6.3748356338
  O         1.2078448023       14.7207195254        6.3748356375
  O         6.4715398044        4.5339466689        6.3748354859
  O         6.4374925011        9.6273333315        6.3748354779
  O         6.4034450752       14.7207196824        6.3748354852
  O        11.6671398029        4.5339466145        6.3748355305
  O        11.6330925306        9.6273332747        6.3748355236
  O        11.5990450490       14.7207196300        6.3748355289
  O         0.7244702957       -0.0004640554        9.3006962971
  O         0.6904229114        5.0929221887        9.3006962414
  O         0.6563754564       10.1863087401        9.3006963343
  O         5.9200707249       -0.0004641768        9.3006962965
  O         5.8860233337        5.0929220753        9.3006962488
  O         5.8519758323       10.1863085958        9.3006963327
  O        11.1156704181       -0.0004641531        9.3006963354
  O        11.0816230447        5.0929220858        9.3006962872
  O        11.0475756013       10.1863086309        9.3006963710
  O         1.7711861732       15.2806244903        3.4484472829
  O         1.8392810600        5.0938516435        3.4484473159
  O         1.8052335688       10.1872382033        3.4484472540
  O         6.9667866291       15.2806243634        3.4484473096
  O         7.0348814729        5.0938515122        3.4484473332
  O         7.0008339926       10.1872380728        3.4484472694
  O        12.1623860978       15.2806244421        3.4484473289
  O        12.2304809391        5.0938515811        3.4484473437
  O        12.1964334906       10.1872381557        3.4484472923
  O         0.7074462443        2.5462289473        2.4038043923
  O         0.6733988365        7.6396151196        2.4038044281
  O         0.6393514696       12.7330014915        2.4038044767
  O         5.9030466537        2.5462288126        2.4038044055
  O         5.8689992658        7.6396149899        2.4038044465
  O         5.8349518820       12.7330013502        2.4038044879
  O        11.0986464378        2.5462288403        2.4038043807
  O        11.0645990495        7.6396150154        2.4038044164
  O        11.0305516174       12.7330013718        2.4038044542
  O         4.4541055377        2.5471576389        9.3006961651
  O         4.4200581311        7.6405439300        9.3006962034
  O         4.3860107791       12.7339301469        9.3006962588
  O         9.6497052452        2.5471576572        9.3006961207
  O         9.6156578831        7.6405439487        9.3006961680
  O         9.5816104394       12.7339301502        9.3006962107
  O        14.8453057015        2.5471575380        9.3006961524
  O        14.8112583188        7.6405438296        9.3006961873
  O        14.7772109270       12.7339300598        9.3006962320
  O         1.2707898183        3.1061364238       11.1819135909
  O         1.2367422792        8.1995225271       11.1819135865
  O         1.2026948830       13.2929089224       11.1819135968
  O         6.4663900923        3.1061366059       11.1819134367
  O         6.4323425587        8.1995227081       11.1819134280
  O         6.3982951800       13.2929091198       11.1819134442
  O        11.6619894472        3.1061364354       11.1819135576
  O        11.6279419298        8.1995225658       11.1819135547
  O        11.5938945098       13.2929089681       11.1819135497
  O         1.8563049433        2.5471587619        8.2560532539
  O         1.8222575517        7.6405450578        8.2560532099
  O         1.7882101750       12.7339313180        8.2560531689
  O         7.0519053804        2.5471586410        8.2560532454
  O         7.0178580047        7.6405449388        8.2560531989
  O         6.9838105969       12.7339311790        8.2560531538
  O        12.2475049054        2.5471587180        8.2560532125
  O        12.2134575251        7.6405450145        8.2560531626
  O        12.1794100659       12.7339312598        8.2560531307
  O         3.8856126422        0.5594395568        5.3296649931
  O         3.8515651857        5.6528258160        5.3296649905
  O         3.8175178620       10.7462124887        5.3296649908
  O         9.0812126428        0.5594395437        5.3296650355
  O         9.0471651637        5.6528257827        5.3296650226
  O         9.0131178563       10.7462124388        5.3296650190
  O        14.2768129097        0.5594397079        5.3296648955
  O        14.2427654218        5.6528259630        5.3296648781
  O        14.2087181348       10.7462126370        5.3296648840
  O         4.3689870685       15.2806232701        2.4038043426
  O         4.4370819312        5.0938504183        2.4038042899
  O         4.4030344513       10.1872369479        2.4038043683
  O         9.5645867833       15.2806232875        2.4038043822
  O         9.6326816231        5.0938504295        2.4038043466
  O         9.5986341741       10.1872369509        2.4038044100
  O        14.7601872088       15.2806231844        2.4038043591
  O        14.8282820797        5.0938503406        2.4038043245
  O        14.7942346414       10.1872368698        2.4038043828
  O         3.8737387467        4.5339427394       11.1819135561
  O         3.8396914041        9.6273293948       11.1819135574
  O         3.8056440089       14.7207157187       11.1819135351
  O         9.0693380992        4.5339426172       11.1819134602
  O         9.0352907765        9.6273292732       11.1819134482
  O         9.0012433547       14.7207155935       11.1819134371
  O        14.2649384200        4.5339427877       11.1819135787
  O        14.2308910872        9.6273294262       11.1819135679
  O        14.1968436685       14.7207157391       11.1819135740
  O         3.3222713704       -0.0004651197        8.2560532717
  O         3.2882239884        5.0929211478        8.2560533273
  O         3.2541764908       10.1863077139        8.2560532514
  O         8.5178708230       -0.0004650292        8.2560532690
  O         8.4838234261        5.0929212471        8.2560533216
  O         8.4497759412       10.1863077962        8.2560532611
  O        13.7134712739       -0.0004651612        8.2560533096
  O        13.6794239015        5.0929211272        8.2560533708
  O        13.6453764576       10.1863077036        8.2560532998
  O         1.2929629077        1.9872538043        5.3296647833
  O         1.2589154377        7.0806400409        5.3296647787
  O         1.2248679966       12.1740262475        5.3296647891
  O         6.4885632103        1.9872539896        5.3296649290
  O         6.4545157483        7.0806402312        5.3296649300
  O         6.4204682898       12.1740264038        5.3296649546
  O        11.6841632322        1.9872539387        5.3296648904
  O        11.6501157292        7.0806401530        5.3296648919
  O        11.6160682850       12.1740263567        5.3296649192
  O         3.8685891120        3.1061333077        6.3748355764
  O         3.8345416072        8.1995194388        6.3748356054
  O         3.8004941970       13.2929057422        6.3748355745
  O         9.0641891077        3.1061332846        6.3748355536
  O         9.0301416143        8.1995194182        6.3748355795
  O         8.9960941812       13.2929057029        6.3748355522
  O        14.2597894209        3.1061334889        6.3748356661
  O        14.2257419281        8.1995196213        6.3748357024
  O        14.1916944622       13.2929058893        6.3748356724
  O         1.2878138941        0.5594428592        0.5225871722
  O         1.2537664199        5.6528290624        0.5225871635
  O         1.2197191075       10.7462158133        0.5225871633
  O         6.4834141941        0.5594430534        0.5225873233
  O         6.4493667195        5.6528292520        0.5225873220
  O         6.4153193778       10.7462159913        0.5225873297
  O        11.6790135409        0.5594428872        0.5225871998
  O        11.6449660331        5.6528290833        0.5225871943
  O        11.6109187337       10.7462158474        0.5225871950
  V        -0.0085118390        1.2733465317        1.4486427126
  V        -0.0425592908        6.3667327539        1.4486427133
  V        -0.0766066855       11.4601192001        1.4486427385
  V         5.1870881720        1.2733464982        1.4486427305
  V         5.1530407206        6.3667327159        1.4486427394
  V         5.1189933060       11.4601191524        1.4486427816
  V        10.3826877822        1.2733465541        1.4486427316
  V        10.3486403167        6.3667327682        1.4486427510
  V        10.3145929041       11.4601191896        1.4486427586
  V         2.5722644227        3.8200400950        7.3008901407
  V         2.5382170049        8.9134264871        7.3008901608
  V         2.5041695796       14.0068127844        7.3008901058
  V         7.7678644356        3.8200400692        7.3008900886
  V         7.7338170235        8.9134264573        7.3008901030
  V         7.6997695924       14.0068127405        7.3008900761
  V        12.9634644756        3.8200400383        7.3008901229
  V        12.9294170952        8.9134264465        7.3008901575
  V        12.8953696106       14.0068127105        7.3008901009
  V        -0.0255355728        3.8200398150       10.2558580766
  V        -0.0595829837        8.9134262142       10.2558580573
  V        -0.0936304133       14.0068125178       10.2558580776
  V         5.1700644307        3.8200397856       10.2558580549
  V         5.1360169954        8.9134261583       10.2558580568
  V         5.1019695902       14.0068124781       10.2558580614
  V        10.3656640223        3.8200398216       10.2558580880
  V        10.3316166122        8.9134262194       10.2558580789
  V        10.2975691495       14.0068125176       10.2558580637
  V         2.5892878630        1.2733465866        4.4036107375
  V         2.5552404113        6.3667328227        4.4036107155
  V         2.5211930035       11.4601192461        4.4036107123
  V         7.7848878986        1.2733465642        4.4036107770
  V         7.7508404349        6.3667328003        4.4036107429
  V         7.7167930343       11.4601192059        4.4036107614
  V        12.9804879277        1.2733465493        4.4036107058
  V        12.9464404453        6.3667327627        4.4036106804
  V        12.9123930547       11.4601191863        4.4036107166
     216
 i =        1, E =     -5074.0310709240
 Bi         2.5892879979        1.2733465974       10.2348696081
 Bi         2.5552405839        6.3667329060       10.2348696267
 Bi         2.5211931675       11.4601193493       10.2348696270
 Bi         7.7848878797        1.2733466143       10.2348696269
 Bi         7.7508404936        6.3667329275       10.2348696689
 Bi         7.7167930229       11.4601193308       10.2348696505
 Bi        12.9804879472        1.2733465165       10.2348695942
 Bi        12.9464405114        6.3667328551       10.2348695524
 Bi        12.9123930949       11.4601193141       10.2348695583
 Bi         2.5722642279        3.8200395393        1.4696320008
 Bi         2.5382168540        8.9134260023        1.4696319842
 Bi         2.5041694792       14.0068122740        1.4696320600
 Bi         7.7678641578        3.8200395600        1.4696319921
 Bi         7.7338167555        8.9134260288        1.4696319918
 Bi         7.6997693760       14.0068122801        1.4696320320
 Bi        12.9634641779        3.8200395172        1.4696320479
 Bi        12.9294168134        8.9134259719        1.4696320291
 Bi        12.8953693347       14.0068121956        1.4696321272
 Bi        -0.0085115514        1.2733470190        7.3218837761
 Bi        -0.0425589519        6.3667333280        7.3218838018
 Bi        -0.0766063580       11.4601197348        7.3218838368
 Bi         5.1870883794        1.2733470182        7.3218838316
 Bi         5.1530409763        6.3667333201        7.3218838493
 Bi         5.1189935215       11.4601196807        7.3218839067
 Bi        10.3826880844        1.2733470354        7.3218839026
 Bi        10.3486406700        6.3667333437        7.3218838666
 Bi        10.3145932298       11.4601196613        7.3218839452