 DBCSR| Multiplication driver                                               BLAS
 DBCSR| Multrec recursion limit                                              512
 DBCSR| Multiplication stack size                                           1000
 DBCSR| Maximum elements for images                                    UNLIMITED
 DBCSR| Multiplicative factor virtual images                                   1
 DBCSR| Multiplication size stacks                                             3
 DBCSR| Number of 3D layers                                               SINGLE
 DBCSR| Use MPI memory allocation                                              T
 DBCSR| Use RMA algorithm                                                      F
 DBCSR| Use Communication thread                                               T
 DBCSR| Communication thread load                                             87


  **** **** ******  **  PROGRAM STARTED AT               2019-07-25 13:12:30.746
 ***** ** ***  *** **   PROGRAM STARTED ON        cpn-p28-40.cbls.ccr.buffalo.ed
 **    ****   ******    PROGRAM STARTED BY                              pavankum
 ***** **    ** ** **   PROGRAM PROCESS ID                                 99556
  **** **  *******  **  PROGRAM STARTED IN /projects/academic/mdupuis2/pavan/VAB
                                           _calculation/results_for_paper/2.Zn2+
                                           /gapw_all_elec/r_6

 CP2K| version string:                                          CP2K version 6.1
 CP2K| source code revision number:                                    svn:18464
 CP2K| cp2kflags: libint fftw3 libxc parallel mpi3 scalapack libderiv_max_am1=5 
 CP2K|            libint_max_am=6
 CP2K| is freely available from                            https://www.cp2k.org/
 CP2K| Program compiled at                          Fri Nov 30 14:17:09 EST 2018
 CP2K| Program compiled on                       srv-p22-12.cbls.ccr.buffalo.edu
 CP2K| Program compiled for                                                local
 CP2K| Data directory path    /projects/academic/mdupuis2/pavan/cp2k/cp2k-6.1/da
 CP2K| Input file name                                                 input.inp

 GLOBAL| Force Environment number                                              3
 GLOBAL| Basis set file name                                           BASIS_SET
 GLOBAL| Potential file name                                           POTENTIAL
 GLOBAL| MM Potential file name                                     MM_POTENTIAL
 GLOBAL| Coordinate file name                                     ./geometry.xyz
 GLOBAL| Force Environment number                                              1
 GLOBAL| Basis set file name            /projects/academic/mdupuis2/pavan/cp2k/c
 GLOBAL| Potential file name            /projects/academic/mdupuis2/pavan/cp2k/c
 GLOBAL| MM Potential file name                                     MM_POTENTIAL
 GLOBAL| Coordinate file name                                       ./state0.xyz
 GLOBAL| Force Environment number                                              2
 GLOBAL| Basis set file name            /projects/academic/mdupuis2/pavan/cp2k/c
 GLOBAL| Potential file name            /projects/academic/mdupuis2/pavan/cp2k/c
 GLOBAL| MM Potential file name                                     MM_POTENTIAL
 GLOBAL| Coordinate file name                                       ./state1.xyz
 GLOBAL| Method name                                                        CP2K
 GLOBAL| Project name                                                      p_zn_
 GLOBAL| Preferred FFT library                                             FFTW3
 GLOBAL| Preferred diagonalization lib.                                       SL
 GLOBAL| Run type                                                         ENERGY
 GLOBAL| All-to-all communication in single precision                          F
 GLOBAL| FFTs using library dependent lengths                                  T
 GLOBAL| Global print level                                               MEDIUM
 GLOBAL| Total number of message passing processes                            16
 GLOBAL| Number of threads for this process                                    1
 GLOBAL| This output is from process                                           0
 GLOBAL| CPU model name :  Intel(R) Xeon(R) CPU E5-2650 v3 @ 2.30GHz

 MEMORY| system memory details [Kb]
 MEMORY|                        rank 0           min           max       average
 MEMORY| MemTotal            131740876     131740876     131740876     131740876
 MEMORY| MemFree             116793952     116793952     116793952     116793952
 MEMORY| Buffers                348268        348268        348268        348268
 MEMORY| Cached               11239924      11239924      11239924      11239924
 MEMORY| Slab                   348832        348832        348832        348832
 MEMORY| SReclaimable           186560        186560        186560        186560
 MEMORY| MemLikelyFree       128568704     128568704     128568704     128568704


 *** Fundamental physical constants (SI units) ***

 *** Literature: B. J. Mohr and B. N. Taylor,
 ***             CODATA recommended values of the fundamental physical
 ***             constants: 2006, Web Version 5.1
 ***             http://physics.nist.gov/constants

 Speed of light in vacuum [m/s]                             2.99792458000000E+08
 Magnetic constant or permeability of vacuum [N/A**2]       1.25663706143592E-06
 Electric constant or permittivity of vacuum [F/m]          8.85418781762039E-12
 Planck constant (h) [J*s]                                  6.62606896000000E-34
 Planck constant (h-bar) [J*s]                              1.05457162825177E-34
 Elementary charge [C]                                      1.60217648700000E-19
 Electron mass [kg]                                         9.10938215000000E-31
 Electron g factor [ ]                                     -2.00231930436220E+00
 Proton mass [kg]                                           1.67262163700000E-27
 Fine-structure constant                                    7.29735253760000E-03
 Rydberg constant [1/m]                                     1.09737315685270E+07
 Avogadro constant [1/mol]                                  6.02214179000000E+23
 Boltzmann constant [J/K]                                   1.38065040000000E-23
 Atomic mass unit [kg]                                      1.66053878200000E-27
 Bohr radius [m]                                            5.29177208590000E-11

 *** Conversion factors ***

 [u] -> [a.u.]                                              1.82288848426455E+03
 [Angstrom] -> [Bohr] = [a.u.]                              1.88972613288564E+00
 [a.u.] = [Bohr] -> [Angstrom]                              5.29177208590000E-01
 [a.u.] -> [s]                                              2.41888432650478E-17
 [a.u.] -> [fs]                                             2.41888432650478E-02
 [a.u.] -> [J]                                              4.35974393937059E-18
 [a.u.] -> [N]                                              8.23872205491840E-08
 [a.u.] -> [K]                                              3.15774647902944E+05
 [a.u.] -> [kJ/mol]                                         2.62549961709828E+03
 [a.u.] -> [kcal/mol]                                       6.27509468713739E+02
 [a.u.] -> [Pa]                                             2.94210107994716E+13
 [a.u.] -> [bar]                                            2.94210107994716E+08
 [a.u.] -> [atm]                                            2.90362800883016E+08
 [a.u.] -> [eV]                                             2.72113838565563E+01
 [a.u.] -> [Hz]                                             6.57968392072181E+15
 [a.u.] -> [1/cm] (wave numbers)                            2.19474631370540E+05
 [a.u./Bohr**2] -> [1/cm]                                   5.14048714338585E+03
 
 MIXED_ENV| Number of created MPI groups:                                      1
 MIXED_ENV| Task to group correspondence:
  (   0 :    0)  (   1 :    0)  (   2 :    0)  (   3 :    0)
  (   4 :    0)  (   5 :    0)  (   6 :    0)  (   7 :    0)
  (   8 :    0)  (   9 :    0)  (  10 :    0)  (  11 :    0)
  (  12 :    0)  (  13 :    0)  (  14 :    0)  (  15 :    0)
          ----------------------------------------------------------------------
 COLVARS| COLVAR INPUT INDEX:        1
 COLVARS| ENERGY          >>> ATOMS:                                        all!
          ----------------------------------------------------------------------

 CELL_TOP| Volume [angstrom^3]:                                         8000.000
 CELL_TOP| Vector a [angstrom    20.000     0.000     0.000    |a| =      20.000
 CELL_TOP| Vector b [angstrom     0.000    20.000     0.000    |b| =      20.000
 CELL_TOP| Vector c [angstrom     0.000     0.000    20.000    |c| =      20.000
 CELL_TOP| Angle (b,c), alpha [degree]:                                   90.000
 CELL_TOP| Angle (a,c), beta  [degree]:                                   90.000
 CELL_TOP| Angle (a,b), gamma [degree]:                                   90.000
 CELL_TOP| Numerically orthorhombic:                                         YES

 GENERATE|  Preliminary Number of Bonds generated:                             0
 GENERATE|  Achieved consistency in connectivity generation.

 CELL| Volume [angstrom^3]:                                             8000.000
 CELL| Vector a [angstrom]:      20.000     0.000     0.000    |a| =      20.000
 CELL| Vector b [angstrom]:       0.000    20.000     0.000    |b| =      20.000
 CELL| Vector c [angstrom]:       0.000     0.000    20.000    |c| =      20.000
 CELL| Angle (b,c), alpha [degree]:                                       90.000
 CELL| Angle (a,c), beta  [degree]:                                       90.000
 CELL| Angle (a,b), gamma [degree]:                                       90.000
 CELL| Numerically orthorhombic:                                             YES

 CELL_REF| Volume [angstrom^3]:                                         8000.000
 CELL_REF| Vector a [angstrom    20.000     0.000     0.000    |a| =      20.000
 CELL_REF| Vector b [angstrom     0.000    20.000     0.000    |b| =      20.000
 CELL_REF| Vector c [angstrom     0.000     0.000    20.000    |c| =      20.000
 CELL_REF| Angle (b,c), alpha [degree]:                                   90.000
 CELL_REF| Angle (a,c), beta  [degree]:                                   90.000
 CELL_REF| Angle (a,b), gamma [degree]:                                   90.000
 CELL_REF| Numerically orthorhombic:                                         YES


 MOLECULE KIND INFORMATION


 All atoms are their own molecule, skipping detailed information

 *** WARNING in force_env_methods.F:1097 :: ASSERTION (cond) failed at   ***
 *** line   1098 Error (0.185707E-11) in computing numerical derivatives ***
 *** larger then(0.100000E-11) .                                         ***


 *** WARNING in force_env_methods.F:1097 :: ASSERTION (cond) failed at   ***
 *** line   1098 Error (0.185707E-11) in computing numerical derivatives ***
 *** larger then(0.100000E-11) .                                         ***

 nspins, nimgs, gapw_xc           2           1 F 

 ####### CHECKS ON A and B #######
  E_A before:  -3554.5442789592144     
  E_B before:  -3554.5442789592171     
 ####### - #######
##Inside build_kohn_sham_matrix() before doing any function calls
 i). ELECTRON ONLY CALLS
 1. Electron_pw   1228.6641167856365     
 2. Electron_1c   391.68599486438444     
 ########## After 1st poisson call pure hartree  (sum of above two quantities) ##########   1620.3501116500208     
 ########################
ii). NUCLEAR ONLY CALLS
 1. Nuclear_pw   1910.1695942566964     
 2. Nuclear_1c  -337.35001003422531     
iii). REGULAR CALL (ELECTRON+NUCLEAR)
 1. Hartree_pw   135.81044063820002     
 2. Hartree_1c   75.115214151003926     
 Regular: Before call to qs_vxc Regular_exc, exc1   0.0000000000000000        0.0000000000000000     
 Regular: After call to qs_vxc_create Regular_exc, exc1   0.0000000000000000        0.0000000000000000     
 iv). EXCHANGE ENERGY   -139.04116870564934     
 v). POTENTIAL ENERGY FROM CORE HAMILTONIAN   -5687.3334069934244     
 vi). KINETIC ENERGY    3554.3476572241234     
 vii). SELF ENERGY   -1493.4430152734726     
      
 E_NUC is    79.376568948998511     
      
IN build_kohn_sham_matrix() CALLING qs_ks_atom(),updates single atom contributions due to gapw
Inside build_kohn_sham_matrix() after doing all function calls and evaluating energy
 CHECK ON A IS DONE, E_A after passing modified PA_hat density:  -3554.5442789592194     
##Inside build_kohn_sham_matrix() before doing any function calls
 i). ELECTRON ONLY CALLS
 1. Electron_pw   1228.6641167855764     
 2. Electron_1c   391.68599486438592     
 ########## After 1st poisson call pure hartree  (sum of above two quantities) ##########   1620.3501116499624     
 ########################
ii). NUCLEAR ONLY CALLS
 1. Nuclear_pw   1910.1695942566964     
 2. Nuclear_1c  -337.35001003422531     
iii). REGULAR CALL (ELECTRON+NUCLEAR)
 1. Hartree_pw   135.81044063819996     
 2. Hartree_1c   75.115214151003215     
 Regular: Before call to qs_vxc Regular_exc, exc1   0.0000000000000000        0.0000000000000000     
 Regular: After call to qs_vxc_create Regular_exc, exc1   0.0000000000000000        0.0000000000000000     
 iv). EXCHANGE ENERGY   -139.04116870564752     
 v). POTENTIAL ENERGY FROM CORE HAMILTONIAN   -5687.3334069934117     
 vi). KINETIC ENERGY    3554.3476572241111     
 vii). SELF ENERGY   -1493.4430152734726     
      
 E_NUC is    79.376568948998511     
      
IN build_kohn_sham_matrix() CALLING qs_ks_atom(),updates single atom contributions due to gapw
Inside build_kohn_sham_matrix() after doing all function calls and evaluating energy
 CHECK ON B IS DONE, E_B after passing modified PB_hat density:  -3554.5442789592175     
 DOING ANTI-SYMMETRIC PART OF VAB
##Inside build_kohn_sham_matrix() before doing any function calls
 i). ELECTRON ONLY CALLS
 1. Electron_pw   1.9106484213181239E-005
 2. Electron_1c  -2.7805583021657574E-012
 ########## After 1st poisson call pure hartree  (sum of above two quantities) ##########   1.9106481432622937E-005
 ########################
ii). NUCLEAR ONLY CALLS
 1. Nuclear_pw   1910.1695942566964     
 2. Nuclear_1c  -337.35001003422531     
iii). REGULAR CALL (ELECTRON+NUCLEAR)
 1. Hartree_pw   1910.0427650862789     
 2. Hartree_1c  -337.35008142699189     
 Regular: Before call to qs_vxc Regular_exc, exc1   0.0000000000000000        0.0000000000000000     
 Regular: After call to qs_vxc_create Regular_exc, exc1   0.0000000000000000        0.0000000000000000     
 iv). EXCHANGE ENERGY   -2.0799676857285728E-002
 v). POTENTIAL ENERGY FROM CORE HAMILTONIAN    2.2775949658591834E-005
 vi). KINETIC ENERGY   -1.9985504259082895E-003
 vii). SELF ENERGY   -1493.4430152734726     
      
 E_NUC is    79.376568948998511     
      
IN build_kohn_sham_matrix() CALLING qs_ks_atom(),updates single atom contributions due to gapw
Inside build_kohn_sham_matrix() after doing all function calls and evaluating energy
 DOING SYMMETRIC PART OF VAB
##Inside build_kohn_sham_matrix() before doing any function calls
 i). ELECTRON ONLY CALLS
 1. Electron_pw   42.805767174156493     
 2. Electron_1c   13.652975739405052     
 ########## After 1st poisson call pure hartree  (sum of above two quantities) ##########   56.458742913561544     
 ########################
 ehartree, ehartree_1c after multiplying with DTPROD/DHPROD   229.27571144610454        73.127896838591880     
 dtprod, dhprod are   1.0000000000000064       0.18669996444093054     
 J2_AB is    302.40360828469642     
ii). NUCLEAR ONLY CALLS
 1. Nuclear_pw   1910.1695942566964     
 2. Nuclear_1c  -337.35001003422531     
iii). REGULAR CALL (ELECTRON+NUCLEAR)
 1. Hartree_pw   1392.4309325765216     
 2. Hartree_1c  -319.82414342397141     
 Regular: Before call to qs_vxc Regular_exc, exc1   0.0000000000000000        0.0000000000000000     
 Regular: After call to qs_vxc_create Regular_exc, exc1   0.0000000000000000        0.0000000000000000     
 iv). EXCHANGE ENERGY   -4.8650241302518911     
 v). POTENTIAL ENERGY FROM CORE HAMILTONIAN   -1061.8050328378088     
 vi). KINETIC ENERGY    663.56468398112963     
 vii). SELF ENERGY   -1493.4430152734726     
      
 E_NUC is    79.376568948998511     
      
IN build_kohn_sham_matrix() CALLING qs_ks_atom(),updates single atom contributions due to gapw
 ########################
 #########  ET  #########
 ------------------------
 E_NUC   79.376568948998511     
 HAA <a|H|a>  -3633.9208479082172     
 HBB <b|H|b>  -3633.9208479082172     
             
 <a|H1|b>  -954.91188684016777     
 <a|H2|b>   276.45703422989908     
 ...<a|J2|b>   302.40360828469642     
 ...<a|K2|b>  -25.946574054797349     
 HAB <a|H|b>  -678.45485261026874     
 SAB  0.18669996444093173     
 VAB   2.0303174018404114E-003
  VAB in different units 
 ------------------------
          5.5247746172125495E-002 eV
          445.60316333411686      1/cm
          1.2740433941491356      kcal/mol
          5.3305975611199834      kJ/mol
          13358846762851.035      Hertz
 ------------------------
 ------------------------
 E+  -3633.9184392187517     
 E-  -3633.9224984859102     
 (E+ - E-)/2   2.0296335793777713E-003
          5.5229138416604859E-002 eV
          445.45308165120599      1/cm
          1.2736142890789097      kcal/mol
          5.3288021855061585      kJ/mol
          13354347427188.973      Hertz
 ------------------------
 ------------------------
Inside build_kohn_sham_matrix() after doing all function calls and evaluating energy
 NO FORCE_EVAL section calculated the dipole

 ENERGY| Total FORCE_EVAL ( MIXED ) energy (a.u.):             0.000000000002728


 -------------------------------------------------------------------------------
 -                                                                             -
 -                                DBCSR STATISTICS                             -
 -                                                                             -
 -------------------------------------------------------------------------------
 COUNTER                                    TOTAL       BLAS       SMM       ACC
 flops    24 x    29 x    24               267264     100.0%      0.0%      0.0%
 flops    24 x    24 x    29              5011200     100.0%      0.0%      0.0%
 flops    24 x    24 x    30              5184000     100.0%      0.0%      0.0%
 flops inhomo. stacks                           0       0.0%      0.0%      0.0%
 flops total                        10.462464E+06     100.0%      0.0%      0.0%
 flops max/rank                      3.532032E+06     100.0%      0.0%      0.0%
 matmuls inhomo. stacks                         0       0.0%      0.0%      0.0%
 matmuls total                                308     100.0%      0.0%      0.0%
 number of processed stacks                   308     100.0%      0.0%      0.0%
 average stack size                                     1.0       0.0       0.0
 marketing flops                    13.860864E+06
 -------------------------------------------------------------------------------
 # multiplications                            102
 max memory usage/rank             692.559872E+06
 # max total images/rank                        1
 # max 3D layers                                1
 # MPI messages exchanged                    9792
 MPI messages size (bytes):
  total size                         6.974208E+06
  min size                           0.000000E+00
  max size                           5.760000E+03
  average size                     712.235291E+00
 MPI breakdown and total messages size (bytes):
             size <=      128                8556                        0
       128 < size <=     8192                1236                  6974208
      8192 < size <=    32768                   0                        0
     32768 < size <=   131072                   0                        0
    131072 < size <=  4194304                   0                        0
   4194304 < size <= 16777216                   0                        0
  16777216 < size                               0                        0
 -------------------------------------------------------------------------------

 MEMORY| Estimated peak process memory [MiB]                                 662

 -------------------------------------------------------------------------------
 -                                                                             -
 -                         MESSAGE PASSING PERFORMANCE                         -
 -                                                                             -
 -------------------------------------------------------------------------------

 ROUTINE             CALLS      AVE VOLUME [Bytes]
 MP_Group              211
 MP_Bcast              763                 858136.
 MP_Allreduce         3028                  42840.
 MP_Sync               601
 MP_Alltoall          5074                5232834.
 MP_ISendRecv         9660                  78715.
 MP_Wait             27114
 MP_comm_split         101
 MP_ISend            12552                 521083.
 MP_IRecv            12552                 520856.
 MP_Recv                24                   3072.
 MP_Memory            4072
 -------------------------------------------------------------------------------


 -------------------------------------------------------------------------------
 -                                                                             -
 -                           R E F E R E N C E S                               -
 -                                                                             -
 -------------------------------------------------------------------------------
 
 CP2K version 6.1, the CP2K developers group (2018).
 CP2K is freely available from https://www.cp2k.org/ .

 Schuett, Ole; Messmer, Peter; Hutter, Juerg; VandeVondele, Joost. 
 Electronic Structure Calculations on Graphics Processing Units, John Wiley & Sons, Ltd, 173-190 (2016). 
 GPU-Accelerated Sparse Matrix-Matrix Multiplication for Linear Scaling Density Functional Theory.
 http://dx.doi.org/10.1002/9781118670712.ch8


 Borstnik, U; VandeVondele, J; Weber, V; Hutter, J. 
 PARALLEL COMPUTING, 40 (5-6), 47-58 (2014). 
 Sparse matrix multiplication: The distributed block-compressed sparse
 row library.
 http://dx.doi.org/10.1016/j.parco.2014.03.012


 Hutter, J; Iannuzzi, M; Schiffmann, F; VandeVondele, J. 
 WILEY INTERDISCIPLINARY REVIEWS-COMPUTATIONAL MOLECULAR SCIENCE, 4 (1), 15-25 (2014). 
 CP2K: atomistic simulations of condensed matter systems.
 http://dx.doi.org/10.1002/wcms.1159


 Guidon, M; Hutter, J; VandeVondele, J. 
 JOURNAL OF CHEMICAL THEORY AND COMPUTATION, 5 (11), 3010-3021 (2009). 
 Robust Periodic Hartree-Fock Exchange for Large-Scale Simulations Using
 Gaussian Basis Sets.
 http://dx.doi.org/10.1021/ct900494g


 Guidon, M; Schiffmann, F; Hutter, J; VandeVondele, J. 
 JOURNAL OF CHEMICAL PHYSICS, 128 (21), 214104 (2008). 
 Ab initio molecular dynamics using hybrid density functionals.
 http://dx.doi.org/10.1063/1.2931945


 Genovese, L; Deutsch, T; Goedecker, S. 
 JOURNAL OF CHEMICAL PHYSICS, 127 (5), 054704 (2007). 
 Efficient and accurate three-dimensional Poisson solver for surface
 problems.
 http://dx.doi.org/10.1063/1.2754685


 Genovese, L; Deutsch, T; Neelov, A; Goedecker, S; Beylkin, G. 
 JOURNAL OF CHEMICAL PHYSICS, 125 (7), 074105 (2006). 
 Efficient solution of Poisson's equation with free boundary conditions.
 http://dx.doi.org/10.1063/1.2335442


 Frigo, M; Johnson, SG. 
 PROCEEDINGS OF THE IEEE, 93 (2), 216-231 (2005). 
 The design and implementation of FFTW3.
 http://dx.doi.org/10.1109/JPROC.2004.840301


 Lippert, G; Hutter, J; Parrinello, M. 
 THEORETICAL CHEMISTRY ACCOUNTS, 103 (2), 124-140 (1999). 
 The Gaussian and augmented-plane-wave density functional method for ab
 initio molecular dynamics simulations.
 http://dx.doi.org/10.1007/s002140050523


 Krack, M; Parrinello, M. 
 PHYSICAL CHEMISTRY CHEMICAL PHYSICS, 2 (10), 2105-2112 (2000). 
 All-electron ab-initio molecular dynamics.
 http://dx.doi.org/10.1039/b001167n


 -------------------------------------------------------------------------------
 -                                                                             -
 -                                T I M I N G                                  -
 -                                                                             -
 -------------------------------------------------------------------------------
 SUBROUTINE                       CALLS  ASD         SELF TIME        TOTAL TIME
                                MAXIMUM       AVERAGE  MAXIMUM  AVERAGE  MAXIMUM
 CP2K                                 1  1.0    0.053    0.059  294.777  294.778
 qs_ks_update_qs_env                 54  4.8    0.001    0.001  261.302  261.310
 rebuild_ks_matrix                   54  5.8    0.000    0.000  261.298  261.306
 qs_ks_build_kohn_sham_matrix        54  6.8    0.015    0.018  261.298  261.306
 qs_energies                          2  2.0    0.000    0.000  260.740  260.741
 scf_env_do_scf                       2  3.0    0.000    0.000  259.228  259.231
 scf_env_do_scf_inner_loop           50  4.0    0.002    0.004  259.228  259.230
 prepare_gapw_den                    62  7.4    0.006    0.008  174.318  174.580
 calculate_rho_atom                 116  8.6   36.718  165.007   36.719  165.026
 mp_sum_dv                          129  8.3  128.019  137.035  128.019  137.035
 pw_transfer                       1258  9.0    0.058    0.064   55.173   56.725
 fft_wrap_pw1pw2                   1196 10.0    0.010    0.011   54.997   56.531
 fft_wrap_pw1pw2_140                560 10.7    3.150    3.817   51.426   53.805
 fft3d_ps                          1196 12.0   28.692   31.006   44.102   44.938
 qs_rho_update_rho                   56  4.8    0.000    0.001   31.742   31.743
 calculate_rho_elec                 112  5.8    0.426    0.734   31.663   31.664
 density_rs2pw                      112  6.8    0.006    0.007   29.670   30.254
 pw_poisson_solve                    62  7.4    0.896    1.028   27.937   27.947
 mp_sum_d                          1521  6.1   15.647   19.111   15.647   19.111
 rs_pw_transfer                     970  9.3    0.012    0.015   17.328   17.736
 hfx_ks_matrix                       54  7.8    0.001    0.001   17.227   17.231
 integrate_four_center               54  8.8    0.019    0.021   17.225   17.227
 sum_up_and_integrate                50  8.0    0.001    0.001   16.749   16.872
 integrate_v_rspace                 100  9.0    0.096    0.352   16.749   16.871
 potential_pw2rs                    100 10.0    0.016    0.017   16.632   16.688
 Vh_1c_gg_integrals                  62  7.4    1.336   15.336   15.682   16.321
 mp_alltoall_z22v                  1196 14.0    6.702   12.616    6.702   12.616
 ps_wavelet_solve                    62  8.4   10.369   11.176   12.114   12.194
 yz_to_x                            672 12.5    4.561    5.990    8.785   11.153
 put_rho0_on_grid                    62  8.4    0.178    0.189    8.725    8.987
 powell_optimize                2309856 11.0    8.418    8.593    8.418    8.593
 mp_waitany                       10920 11.2    4.455    8.402    4.455    8.402
 calc_pair_dist_radii                 2 10.0    3.810    3.833    7.904    8.029
 rs_pw_transfer_RS2PW_140           176  9.4    4.604    5.548    7.207    7.852
 rs_pw_transfer_PW2RS_140           158 11.1    4.230    5.097    6.753    7.332
 calc_screening_functions             2 10.0    2.786    2.811    7.109    7.218
 x_to_yz                            524 13.7    4.128    5.148    6.607    7.094
 -------------------------------------------------------------------------------

 The number of warnings for this run is : 4
 
 -------------------------------------------------------------------------------
  **** **** ******  **  PROGRAM ENDED AT                 2019-07-25 13:17:25.708
 ***** ** ***  *** **   PROGRAM RAN ON            cpn-p28-40.cbls.ccr.buffalo.ed
 **    ****   ******    PROGRAM RAN BY                                  pavankum
 ***** **    ** ** **   PROGRAM PROCESS ID                                 99556
  **** **  *******  **  PROGRAM STOPPED IN /projects/academic/mdupuis2/pavan/VAB
                                           _calculation/results_for_paper/2.Zn2+
                                           /gapw_all_elec/r_6
