 DBCSR| Multiplication driver                                               BLAS
 DBCSR| Multrec recursion limit                                              512
 DBCSR| Multiplication stack size                                           1000
 DBCSR| Maximum elements for images                                    UNLIMITED
 DBCSR| Multiplicative factor virtual images                                   1
 DBCSR| Multiplication size stacks                                             3
 DBCSR| Number of 3D layers                                               SINGLE
 DBCSR| Use MPI memory allocation                                              T
 DBCSR| Use RMA algorithm                                                      F
 DBCSR| Use Communication thread                                               T
 DBCSR| Communication thread load                                             87


  **** **** ******  **  PROGRAM STARTED AT               2019-07-25 11:32:36.037
 ***** ** ***  *** **   PROGRAM STARTED ON        cpn-p28-36.cbls.ccr.buffalo.ed
 **    ****   ******    PROGRAM STARTED BY                              pavankum
 ***** **    ** ** **   PROGRAM PROCESS ID                                 82716
  **** **  *******  **  PROGRAM STARTED IN /projects/academic/mdupuis2/pavan/VAB
                                           _calculation/results_for_paper/2.Zn2+
                                           /gapw_pseudo/r_5

 CP2K| version string:                                          CP2K version 6.1
 CP2K| source code revision number:                                    svn:18464
 CP2K| cp2kflags: libint fftw3 libxc parallel mpi3 scalapack libderiv_max_am1=5 
 CP2K|            libint_max_am=6
 CP2K| is freely available from                            https://www.cp2k.org/
 CP2K| Program compiled at                          Fri Nov 30 14:17:09 EST 2018
 CP2K| Program compiled on                       srv-p22-12.cbls.ccr.buffalo.edu
 CP2K| Program compiled for                                                local
 CP2K| Data directory path    /projects/academic/mdupuis2/pavan/cp2k/cp2k-6.1/da
 CP2K| Input file name                                                 input.inp

 GLOBAL| Force Environment number                                              3
 GLOBAL| Basis set file name                                           BASIS_SET
 GLOBAL| Potential file name                                           POTENTIAL
 GLOBAL| MM Potential file name                                     MM_POTENTIAL
 GLOBAL| Coordinate file name                                     ./geometry.xyz
 GLOBAL| Force Environment number                                              1
 GLOBAL| Basis set file name            /projects/academic/mdupuis2/pavan/BASIS_
 GLOBAL| Potential file name            /projects/academic/mdupuis2/pavan/POTENT
 GLOBAL| MM Potential file name                                     MM_POTENTIAL
 GLOBAL| Coordinate file name                                       ./state0.xyz
 GLOBAL| Force Environment number                                              2
 GLOBAL| Basis set file name            /projects/academic/mdupuis2/pavan/BASIS_
 GLOBAL| Potential file name            /projects/academic/mdupuis2/pavan/POTENT
 GLOBAL| MM Potential file name                                     MM_POTENTIAL
 GLOBAL| Coordinate file name                                       ./state1.xyz
 GLOBAL| Method name                                                        CP2K
 GLOBAL| Project name                                                      p_zn_
 GLOBAL| Preferred FFT library                                             FFTW3
 GLOBAL| Preferred diagonalization lib.                                       SL
 GLOBAL| Run type                                                         ENERGY
 GLOBAL| All-to-all communication in single precision                          F
 GLOBAL| FFTs using library dependent lengths                                  T
 GLOBAL| Global print level                                               MEDIUM
 GLOBAL| Total number of message passing processes                            16
 GLOBAL| Number of threads for this process                                    1
 GLOBAL| This output is from process                                           0
 GLOBAL| CPU model name :  Intel(R) Xeon(R) CPU E5-2650 v3 @ 2.30GHz

 MEMORY| system memory details [Kb]
 MEMORY|                        rank 0           min           max       average
 MEMORY| MemTotal            131740876     131740876     131740876     131740876
 MEMORY| MemFree             126700784     126700784     126700784     126700784
 MEMORY| Buffers                342836        342836        342836        342836
 MEMORY| Cached                1371244       1371244       1371244       1371244
 MEMORY| Slab                   326012        326012        326012        326012
 MEMORY| SReclaimable           163800        163800        163800        163800
 MEMORY| MemLikelyFree       128578664     128578664     128578664     128578664


 *** Fundamental physical constants (SI units) ***

 *** Literature: B. J. Mohr and B. N. Taylor,
 ***             CODATA recommended values of the fundamental physical
 ***             constants: 2006, Web Version 5.1
 ***             http://physics.nist.gov/constants

 Speed of light in vacuum [m/s]                             2.99792458000000E+08
 Magnetic constant or permeability of vacuum [N/A**2]       1.25663706143592E-06
 Electric constant or permittivity of vacuum [F/m]          8.85418781762039E-12
 Planck constant (h) [J*s]                                  6.62606896000000E-34
 Planck constant (h-bar) [J*s]                              1.05457162825177E-34
 Elementary charge [C]                                      1.60217648700000E-19
 Electron mass [kg]                                         9.10938215000000E-31
 Electron g factor [ ]                                     -2.00231930436220E+00
 Proton mass [kg]                                           1.67262163700000E-27
 Fine-structure constant                                    7.29735253760000E-03
 Rydberg constant [1/m]                                     1.09737315685270E+07
 Avogadro constant [1/mol]                                  6.02214179000000E+23
 Boltzmann constant [J/K]                                   1.38065040000000E-23
 Atomic mass unit [kg]                                      1.66053878200000E-27
 Bohr radius [m]                                            5.29177208590000E-11

 *** Conversion factors ***

 [u] -> [a.u.]                                              1.82288848426455E+03
 [Angstrom] -> [Bohr] = [a.u.]                              1.88972613288564E+00
 [a.u.] = [Bohr] -> [Angstrom]                              5.29177208590000E-01
 [a.u.] -> [s]                                              2.41888432650478E-17
 [a.u.] -> [fs]                                             2.41888432650478E-02
 [a.u.] -> [J]                                              4.35974393937059E-18
 [a.u.] -> [N]                                              8.23872205491840E-08
 [a.u.] -> [K]                                              3.15774647902944E+05
 [a.u.] -> [kJ/mol]                                         2.62549961709828E+03
 [a.u.] -> [kcal/mol]                                       6.27509468713739E+02
 [a.u.] -> [Pa]                                             2.94210107994716E+13
 [a.u.] -> [bar]                                            2.94210107994716E+08
 [a.u.] -> [atm]                                            2.90362800883016E+08
 [a.u.] -> [eV]                                             2.72113838565563E+01
 [a.u.] -> [Hz]                                             6.57968392072181E+15
 [a.u.] -> [1/cm] (wave numbers)                            2.19474631370540E+05
 [a.u./Bohr**2] -> [1/cm]                                   5.14048714338585E+03
 
 MIXED_ENV| Number of created MPI groups:                                      1
 MIXED_ENV| Task to group correspondence:
  (   0 :    0)  (   1 :    0)  (   2 :    0)  (   3 :    0)
  (   4 :    0)  (   5 :    0)  (   6 :    0)  (   7 :    0)
  (   8 :    0)  (   9 :    0)  (  10 :    0)  (  11 :    0)
  (  12 :    0)  (  13 :    0)  (  14 :    0)  (  15 :    0)
          ----------------------------------------------------------------------
 COLVARS| COLVAR INPUT INDEX:        1
 COLVARS| ENERGY          >>> ATOMS:                                        all!
          ----------------------------------------------------------------------

 CELL_TOP| Volume [angstrom^3]:                                         8000.000
 CELL_TOP| Vector a [angstrom    20.000     0.000     0.000    |a| =      20.000
 CELL_TOP| Vector b [angstrom     0.000    20.000     0.000    |b| =      20.000
 CELL_TOP| Vector c [angstrom     0.000     0.000    20.000    |c| =      20.000
 CELL_TOP| Angle (b,c), alpha [degree]:                                   90.000
 CELL_TOP| Angle (a,c), beta  [degree]:                                   90.000
 CELL_TOP| Angle (a,b), gamma [degree]:                                   90.000
 CELL_TOP| Numerically orthorhombic:                                         YES

 GENERATE|  Preliminary Number of Bonds generated:                             0
 GENERATE|  Achieved consistency in connectivity generation.

 CELL| Volume [angstrom^3]:                                             8000.000
 CELL| Vector a [angstrom]:      20.000     0.000     0.000    |a| =      20.000
 CELL| Vector b [angstrom]:       0.000    20.000     0.000    |b| =      20.000
 CELL| Vector c [angstrom]:       0.000     0.000    20.000    |c| =      20.000
 CELL| Angle (b,c), alpha [degree]:                                       90.000
 CELL| Angle (a,c), beta  [degree]:                                       90.000
 CELL| Angle (a,b), gamma [degree]:                                       90.000
 CELL| Numerically orthorhombic:                                             YES

 CELL_REF| Volume [angstrom^3]:                                         8000.000
 CELL_REF| Vector a [angstrom    20.000     0.000     0.000    |a| =      20.000
 CELL_REF| Vector b [angstrom     0.000    20.000     0.000    |b| =      20.000
 CELL_REF| Vector c [angstrom     0.000     0.000    20.000    |c| =      20.000
 CELL_REF| Angle (b,c), alpha [degree]:                                   90.000
 CELL_REF| Angle (a,c), beta  [degree]:                                   90.000
 CELL_REF| Angle (a,b), gamma [degree]:                                   90.000
 CELL_REF| Numerically orthorhombic:                                         YES


 MOLECULE KIND INFORMATION


 All atoms are their own molecule, skipping detailed information
 nspins, nimgs, gapw_xc           2           1 F 

 ####### CHECKS ON A and B #######
  E_A before:  -116.03601180303419     
  E_B before:  -116.03601180281046     
 ####### - #######
##Inside build_kohn_sham_matrix() before doing any function calls
 i). ELECTRON ONLY CALLS
 1. Electron_pw   132.68040569148653     
 2. Electron_1c  -6.2496020040421278     
 ########## After 1st poisson call pure hartree  (sum of above two quantities) ##########   126.43080368744440     
 ########################
ii). NUCLEAR ONLY CALLS
 1. Nuclear_pw   308.16718541087300     
 2. Nuclear_1c  -133.62629575339506     
iii). REGULAR CALL (ELECTRON+NUCLEAR)
 1. Hartree_pw   66.810916997025046     
 2. Hartree_1c  -60.787447031104115     
 Regular: Before call to qs_vxc Regular_exc, exc1   0.0000000000000000        0.0000000000000000     
 Regular: After call to qs_vxc_create Regular_exc, exc1   0.0000000000000000        0.0000000000000000     
 iv). EXCHANGE ENERGY   -12.812887734549269     
 v). POTENTIAL ENERGY FROM CORE HAMILTONIAN   -117.67905099446479     
 vi). KINETIC ENERGY    167.73304525589560     
 vii). SELF ENERGY   -159.30058829583706     
      
 E_NUC is    15.240301361640888     
      
IN build_kohn_sham_matrix() CALLING qs_ks_atom(),updates single atom contributions due to gapw
Inside build_kohn_sham_matrix() after doing all function calls and evaluating energy
 CHECK ON A IS DONE, E_A after passing modified PA_hat density:  -116.03601180303457     
##Inside build_kohn_sham_matrix() before doing any function calls
 i). ELECTRON ONLY CALLS
 1. Electron_pw   132.68042711563737     
 2. Electron_1c  -6.2496009317389252     
 ########## After 1st poisson call pure hartree  (sum of above two quantities) ##########   126.43082618389845     
 ########################
ii). NUCLEAR ONLY CALLS
 1. Nuclear_pw   308.16718541087300     
 2. Nuclear_1c  -133.62629575339506     
iii). REGULAR CALL (ELECTRON+NUCLEAR)
 1. Hartree_pw   66.810932063595047     
 2. Hartree_1c  -60.787452535718415     
 Regular: Before call to qs_vxc Regular_exc, exc1   0.0000000000000000        0.0000000000000000     
 Regular: After call to qs_vxc_create Regular_exc, exc1   0.0000000000000000        0.0000000000000000     
 iv). EXCHANGE ENERGY   -12.812896881267683     
 v). POTENTIAL ENERGY FROM CORE HAMILTONIAN   -117.67903740879305     
 vi). KINETIC ENERGY    167.73303125520675     
 vii). SELF ENERGY   -159.30058829583706     
      
 E_NUC is    15.240301361640888     
      
IN build_kohn_sham_matrix() CALLING qs_ks_atom(),updates single atom contributions due to gapw
Inside build_kohn_sham_matrix() after doing all function calls and evaluating energy
 CHECK ON B IS DONE, E_B after passing modified PB_hat density:  -116.03601180281441     
 DOING ANTI-SYMMETRIC PART OF VAB
##Inside build_kohn_sham_matrix() before doing any function calls
 i). ELECTRON ONLY CALLS
 1. Electron_pw   8.4216932472234933E-005
 2. Electron_1c   4.0901144394585027E-013
 ########## After 1st poisson call pure hartree  (sum of above two quantities) ##########   8.4216932881246381E-005
 ########################
ii). NUCLEAR ONLY CALLS
 1. Nuclear_pw   308.16718541087300     
 2. Nuclear_1c  -133.62629575339506     
iii). REGULAR CALL (ELECTRON+NUCLEAR)
 1. Hartree_pw   308.04994403472722     
 2. Hartree_1c  -133.62616784458262     
 Regular: Before call to qs_vxc Regular_exc, exc1   0.0000000000000000        0.0000000000000000     
 Regular: After call to qs_vxc_create Regular_exc, exc1   0.0000000000000000        0.0000000000000000     
 iv). EXCHANGE ENERGY   -1.5948085736245794E-002
 v). POTENTIAL ENERGY FROM CORE HAMILTONIAN    4.4930952557056553E-004
 vi). KINETIC ENERGY   -3.5047775097807972E-003
 vii). SELF ENERGY   -159.30058829583706     
      
 E_NUC is    15.240301361640888     
      
IN build_kohn_sham_matrix() CALLING qs_ks_atom(),updates single atom contributions due to gapw
Inside build_kohn_sham_matrix() after doing all function calls and evaluating energy
 DOING SYMMETRIC PART OF VAB
##Inside build_kohn_sham_matrix() before doing any function calls
 i). ELECTRON ONLY CALLS
 1. Electron_pw   60.743211480142136     
 2. Electron_1c  -2.8628354361456605     
 ########## After 1st poisson call pure hartree  (sum of above two quantities) ##########   57.880376043996478     
 ########################
 ehartree, ehartree_1c after multiplying with DTPROD/DHPROD   89.756612940293735       -4.2302408103313178     
 dtprod, dhprod are  0.99999999999999978       0.67675472024048655     
 J2_AB is    85.526372129962425     
ii). NUCLEAR ONLY CALLS
 1. Nuclear_pw   308.16718541087300     
 2. Nuclear_1c  -133.62629575339506     
iii). REGULAR CALL (ELECTRON+NUCLEAR)
 1. Hartree_pw   115.79709425267977     
 2. Hartree_1c  -82.960863580994598     
 Regular: Before call to qs_vxc Regular_exc, exc1   0.0000000000000000        0.0000000000000000     
 Regular: After call to qs_vxc_create Regular_exc, exc1   0.0000000000000000        0.0000000000000000     
 iv). EXCHANGE ENERGY   -5.8705069816285516     
 v). POTENTIAL ENERGY FROM CORE HAMILTONIAN   -79.650921246323676     
 vi). KINETIC ENERGY    113.51562026971158     
 vii). SELF ENERGY   -159.30058829583706     
      
 E_NUC is    15.240301361640888     
      
IN build_kohn_sham_matrix() CALLING qs_ks_atom(),updates single atom contributions due to gapw
 ########################
 #########  ET  #########
 ------------------------
 E_NUC   15.240301361640888     
 HAA <a|H|a>  -131.27631316467546     
 HBB <b|H|b>  -131.27631316445525     
             
 <a|H1|b>  -165.72033600640131     
 <a|H2|b>   76.875440380551254     
 ...<a|J2|b>   85.526372129962425     
 ...<a|K2|b>  -8.6509317494111784     
 HAB <a|H|b>  -88.844895625850057     
 SAB  0.67675472024048644     
 VAB   5.5922859500586392E-003
  VAB in different units 
 ------------------------
         0.15217383962267225      eV
          1227.3648974077701      1/cm
          3.5092123854166037      kcal/mol
          14.682544620583071      kJ/mol
          36795473945679.312      Hertz
 ------------------------
 ------------------------
 E+  -131.26693627235144     
 E-  -131.27812084513081     
 (E+ - E-)/2   5.5922863896757441E-003
         0.15217385158526203      eV
          1227.3649938925721      1/cm
          3.5092126612804999      kcal/mol
          14.682545774797612      kJ/mol
          36795476838220.906      Hertz
 ------------------------
 ------------------------
Inside build_kohn_sham_matrix() after doing all function calls and evaluating energy
 NO FORCE_EVAL section calculated the dipole

 ENERGY| Total FORCE_EVAL ( MIXED ) energy (a.u.):            -0.000000000223721


 -------------------------------------------------------------------------------
 -                                                                             -
 -                                DBCSR STATISTICS                             -
 -                                                                             -
 -------------------------------------------------------------------------------
 COUNTER                                    TOTAL       BLAS       SMM       ACC
 flops    25 x    12 x    25               120000     100.0%      0.0%      0.0%
 flops    25 x    11 x    25               220000     100.0%      0.0%      0.0%
 flops    25 x    25 x    11               577500     100.0%      0.0%      0.0%
 flops    25 x    25 x    12               630000     100.0%      0.0%      0.0%
 flops inhomo. stacks                           0       0.0%      0.0%      0.0%
 flops total                         1.547500E+06     100.0%      0.0%      0.0%
 flops max/rank                    572.500000E+03     100.0%      0.0%      0.0%
 matmuls inhomo. stacks                         0       0.0%      0.0%      0.0%
 matmuls total                                108     100.0%      0.0%      0.0%
 number of processed stacks                   108     100.0%      0.0%      0.0%
 average stack size                                     1.0       0.0       0.0
 marketing flops                     1.950000E+06
 -------------------------------------------------------------------------------
 # multiplications                             34
 max memory usage/rank             722.665472E+06
 # max total images/rank                        1
 # max 3D layers                                1
 # MPI messages exchanged                    3264
 MPI messages size (bytes):
  total size                         1.214400E+06
  min size                           0.000000E+00
  max size                           5.000000E+03
  average size                     372.058838E+00
 MPI breakdown and total messages size (bytes):
             size <=      128                2820                        0
       128 < size <=     8192                 444                  1214400
      8192 < size <=    32768                   0                        0
     32768 < size <=   131072                   0                        0
    131072 < size <=  4194304                   0                        0
   4194304 < size <= 16777216                   0                        0
  16777216 < size                               0                        0
 -------------------------------------------------------------------------------

 MEMORY| Estimated peak process memory [MiB]                                 691

 -------------------------------------------------------------------------------
 -                                                                             -
 -                         MESSAGE PASSING PERFORMANCE                         -
 -                                                                             -
 -------------------------------------------------------------------------------

 ROUTINE             CALLS      AVE VOLUME [Bytes]
 MP_Group               63
 MP_Bcast              394                1790008.
 MP_Allreduce         1048                  13925.
 MP_Sync               183
 MP_Alltoall          1546                5711721.
 MP_ISendRecv         2820                  76532.
 MP_Wait              8270
 MP_comm_split          25
 MP_ISend             3864                 546320.
 MP_IRecv             3864                 545836.
 MP_Recv                12                   1200.
 MP_Memory            1296
 -------------------------------------------------------------------------------


 -------------------------------------------------------------------------------
 -                                                                             -
 -                           R E F E R E N C E S                               -
 -                                                                             -
 -------------------------------------------------------------------------------
 
 CP2K version 6.1, the CP2K developers group (2018).
 CP2K is freely available from https://www.cp2k.org/ .

 Schuett, Ole; Messmer, Peter; Hutter, Juerg; VandeVondele, Joost. 
 Electronic Structure Calculations on Graphics Processing Units, John Wiley & Sons, Ltd, 173-190 (2016). 
 GPU-Accelerated Sparse Matrix-Matrix Multiplication for Linear Scaling Density Functional Theory.
 http://dx.doi.org/10.1002/9781118670712.ch8


 Borstnik, U; VandeVondele, J; Weber, V; Hutter, J. 
 PARALLEL COMPUTING, 40 (5-6), 47-58 (2014). 
 Sparse matrix multiplication: The distributed block-compressed sparse
 row library.
 http://dx.doi.org/10.1016/j.parco.2014.03.012


 Hutter, J; Iannuzzi, M; Schiffmann, F; VandeVondele, J. 
 WILEY INTERDISCIPLINARY REVIEWS-COMPUTATIONAL MOLECULAR SCIENCE, 4 (1), 15-25 (2014). 
 CP2K: atomistic simulations of condensed matter systems.
 http://dx.doi.org/10.1002/wcms.1159


 Guidon, M; Hutter, J; VandeVondele, J. 
 JOURNAL OF CHEMICAL THEORY AND COMPUTATION, 5 (11), 3010-3021 (2009). 
 Robust Periodic Hartree-Fock Exchange for Large-Scale Simulations Using
 Gaussian Basis Sets.
 http://dx.doi.org/10.1021/ct900494g


 Guidon, M; Schiffmann, F; Hutter, J; VandeVondele, J. 
 JOURNAL OF CHEMICAL PHYSICS, 128 (21), 214104 (2008). 
 Ab initio molecular dynamics using hybrid density functionals.
 http://dx.doi.org/10.1063/1.2931945


 VandeVondele, J; Hutter, J. 
 JOURNAL OF CHEMICAL PHYSICS, 127 (11), 114105 (2007). 
 Gaussian basis sets for accurate calculations on molecular systems in
 gas and condensed phases.
 http://dx.doi.org/10.1063/1.2770708


 Genovese, L; Deutsch, T; Goedecker, S. 
 JOURNAL OF CHEMICAL PHYSICS, 127 (5), 054704 (2007). 
 Efficient and accurate three-dimensional Poisson solver for surface
 problems.
 http://dx.doi.org/10.1063/1.2754685


 Genovese, L; Deutsch, T; Neelov, A; Goedecker, S; Beylkin, G. 
 JOURNAL OF CHEMICAL PHYSICS, 125 (7), 074105 (2006). 
 Efficient solution of Poisson's equation with free boundary conditions.
 http://dx.doi.org/10.1063/1.2335442


 Krack, M. 
 THEORETICAL CHEMISTRY ACCOUNTS, 114 (1-3), 145-152 (2005). 
 Pseudopotentials for H to Kr optimized for gradient-corrected
 exchange-correlation functionals.
 http://dx.doi.org/10.1007/s00214-005-0655-y


 Frigo, M; Johnson, SG. 
 PROCEEDINGS OF THE IEEE, 93 (2), 216-231 (2005). 
 The design and implementation of FFTW3.
 http://dx.doi.org/10.1109/JPROC.2004.840301


 Lippert, G; Hutter, J; Parrinello, M. 
 THEORETICAL CHEMISTRY ACCOUNTS, 103 (2), 124-140 (1999). 
 The Gaussian and augmented-plane-wave density functional method for ab
 initio molecular dynamics simulations.
 http://dx.doi.org/10.1007/s002140050523


 Krack, M; Parrinello, M. 
 PHYSICAL CHEMISTRY CHEMICAL PHYSICS, 2 (10), 2105-2112 (2000). 
 All-electron ab-initio molecular dynamics.
 http://dx.doi.org/10.1039/b001167n


 Hartwigsen, C; Goedecker, S; Hutter, J. 
 PHYSICAL REVIEW B, 58 (7), 3641-3662 (1998). 
 Relativistic separable dual-space Gaussian pseudopotentials from H to Rn.
 http://dx.doi.org/10.1103/PhysRevB.58.3641


 Goedecker, S; Teter, M; Hutter, J. 
 PHYSICAL REVIEW B, 54 (3), 1703-1710 (1996). 
 Separable dual-space Gaussian pseudopotentials.
 http://dx.doi.org/10.1103/PhysRevB.54.1703


 -------------------------------------------------------------------------------
 -                                                                             -
 -                                T I M I N G                                  -
 -                                                                             -
 -------------------------------------------------------------------------------
 SUBROUTINE                       CALLS  ASD         SELF TIME        TOTAL TIME
                                MAXIMUM       AVERAGE  MAXIMUM  AVERAGE  MAXIMUM
 CP2K                                 1  1.0    0.056    0.071  339.301  339.302
 qs_ks_update_qs_env                 16  4.2    0.000    0.000  326.035  326.040
 rebuild_ks_matrix                   16  5.2    0.000    0.000  326.034  326.039
 qs_ks_build_kohn_sham_matrix        16  6.2    0.008    0.010  326.034  326.039
 prepare_gapw_den                    24  6.5    0.004    0.005  248.030  248.159
 calculate_rho_atom                  40  7.8   18.727  244.418   18.731  244.474
 mp_sum_dv                           53  7.4  225.742  240.884  225.742  240.884
 qs_energies                          2  2.0    0.000    0.000  226.766  226.767
 scf_env_do_scf                       2  3.0    0.000    0.000  225.188  225.191
 scf_env_do_scf_inner_loop           12  4.0    0.001    0.001  225.188  225.191
 hfx_ks_matrix                       16  7.2    0.000    0.000   47.447   47.448
 integrate_four_center               16  8.2    0.017    0.022   47.446   47.447
 calc_screening_functions             2 10.0   24.863   25.404   25.164   25.703
 pw_transfer                        384  8.4    0.018    0.020   18.097   18.726
 fft_wrap_pw1pw2                    360  9.4    0.003    0.003   18.031   18.653
 mp_sync                            183 10.0   12.515   17.848   12.515   17.848
 fft_wrap_pw1pw2_140                180 10.1    1.023    1.228   16.951   17.844
 integrate_four_center_main          16  9.2    0.001    0.002    5.328   17.835
 integrate_four_center_bin         2048 10.2    5.326   17.834    5.326   17.834
 fft3d_ps                           360 11.4    9.371   10.278   14.436   14.756
 mp_sum_d                           757  3.6   11.405   12.860   11.405   12.860
 pw_poisson_solve                    24  6.5    0.342    0.381   12.138   12.149
 Vh_1c_gg_integrals                  24  6.5    0.772   11.631   11.694   11.844
 qs_rho_update_rho                   18  4.3    0.000    0.000   10.521   10.521
 calculate_rho_elec                  36  5.3    0.131    0.180   10.502   10.502
 density_rs2pw                       36  6.3    0.002    0.002    9.843   10.004
 -------------------------------------------------------------------------------

 The number of warnings for this run is : 0
 
 -------------------------------------------------------------------------------
  **** **** ******  **  PROGRAM ENDED AT                 2019-07-25 11:38:15.543
 ***** ** ***  *** **   PROGRAM RAN ON            cpn-p28-36.cbls.ccr.buffalo.ed
 **    ****   ******    PROGRAM RAN BY                                  pavankum
 ***** **    ** ** **   PROGRAM PROCESS ID                                 82716
  **** **  *******  **  PROGRAM STOPPED IN /projects/academic/mdupuis2/pavan/VAB
                                           _calculation/results_for_paper/2.Zn2+
                                           /gapw_pseudo/r_5
 DBCSR| Multiplication driver                                               BLAS
 DBCSR| Multrec recursion limit                                              512
 DBCSR| Multiplication stack size                                           1000
 DBCSR| Maximum elements for images                                    UNLIMITED
 DBCSR| Multiplicative factor virtual images                                   1
 DBCSR| Multiplication size stacks                                             3
 DBCSR| Number of 3D layers                                               SINGLE
 DBCSR| Use MPI memory allocation                                              T
 DBCSR| Use RMA algorithm                                                      F
 DBCSR| Use Communication thread                                               T
 DBCSR| Communication thread load                                             87


  **** **** ******  **  PROGRAM STARTED AT               2019-07-25 12:51:30.036
 ***** ** ***  *** **   PROGRAM STARTED ON        cpn-p28-41.cbls.ccr.buffalo.ed
 **    ****   ******    PROGRAM STARTED BY                              pavankum
 ***** **    ** ** **   PROGRAM PROCESS ID                                 87308
  **** **  *******  **  PROGRAM STARTED IN /projects/academic/mdupuis2/pavan/VAB
                                           _calculation/results_for_paper/2.Zn2+
                                           /gapw_pseudo/r_9

 CP2K| version string:                                          CP2K version 6.1
 CP2K| source code revision number:                                    svn:18464
 CP2K| cp2kflags: libint fftw3 libxc parallel mpi3 scalapack libderiv_max_am1=5 
 CP2K|            libint_max_am=6
 CP2K| is freely available from                            https://www.cp2k.org/
 CP2K| Program compiled at                          Fri Nov 30 14:17:09 EST 2018
 CP2K| Program compiled on                       srv-p22-12.cbls.ccr.buffalo.edu
 CP2K| Program compiled for                                                local
 CP2K| Data directory path    /projects/academic/mdupuis2/pavan/cp2k/cp2k-6.1/da
 CP2K| Input file name                                                 input.inp

 GLOBAL| Force Environment number                                              3
 GLOBAL| Basis set file name                                           BASIS_SET
 GLOBAL| Potential file name                                           POTENTIAL
 GLOBAL| MM Potential file name                                     MM_POTENTIAL
 GLOBAL| Coordinate file name                                     ./geometry.xyz
 GLOBAL| Force Environment number                                              1
 GLOBAL| Basis set file name            /projects/academic/mdupuis2/pavan/BASIS_
 GLOBAL| Potential file name            /projects/academic/mdupuis2/pavan/POTENT
 GLOBAL| MM Potential file name                                     MM_POTENTIAL
 GLOBAL| Coordinate file name                                       ./state0.xyz
 GLOBAL| Force Environment number                                              2
 GLOBAL| Basis set file name            /projects/academic/mdupuis2/pavan/BASIS_
 GLOBAL| Potential file name            /projects/academic/mdupuis2/pavan/POTENT
 GLOBAL| MM Potential file name                                     MM_POTENTIAL
 GLOBAL| Coordinate file name                                       ./state1.xyz
 GLOBAL| Method name                                                        CP2K
 GLOBAL| Project name                                                      p_zn_
 GLOBAL| Preferred FFT library                                             FFTW3
 GLOBAL| Preferred diagonalization lib.                                       SL
 GLOBAL| Run type                                                         ENERGY
 GLOBAL| All-to-all communication in single precision                          F
 GLOBAL| FFTs using library dependent lengths                                  T
 GLOBAL| Global print level                                               MEDIUM
 GLOBAL| Total number of message passing processes                            16
 GLOBAL| Number of threads for this process                                    1
 GLOBAL| This output is from process                                           0
 GLOBAL| CPU model name :  Intel(R) Xeon(R) CPU E5-2650 v3 @ 2.30GHz

 MEMORY| system memory details [Kb]
 MEMORY|                        rank 0           min           max       average
 MEMORY| MemTotal            131740876     131740876     131740876     131740876
 MEMORY| MemFree             127495068     127495068     127495068     127495068
 MEMORY| Buffers                346236        346236        346236        346236
 MEMORY| Cached                 599488        599488        599488        599488
 MEMORY| Slab                   311684        311684        311684        311684
 MEMORY| SReclaimable           155908        155908        155908        155908
 MEMORY| MemLikelyFree       128596700     128596700     128596700     128596700


 *** Fundamental physical constants (SI units) ***

 *** Literature: B. J. Mohr and B. N. Taylor,
 ***             CODATA recommended values of the fundamental physical
 ***             constants: 2006, Web Version 5.1
 ***             http://physics.nist.gov/constants

 Speed of light in vacuum [m/s]                             2.99792458000000E+08
 Magnetic constant or permeability of vacuum [N/A**2]       1.25663706143592E-06
 Electric constant or permittivity of vacuum [F/m]          8.85418781762039E-12
 Planck constant (h) [J*s]                                  6.62606896000000E-34
 Planck constant (h-bar) [J*s]                              1.05457162825177E-34
 Elementary charge [C]                                      1.60217648700000E-19
 Electron mass [kg]                                         9.10938215000000E-31
 Electron g factor [ ]                                     -2.00231930436220E+00
 Proton mass [kg]                                           1.67262163700000E-27
 Fine-structure constant                                    7.29735253760000E-03
 Rydberg constant [1/m]                                     1.09737315685270E+07
 Avogadro constant [1/mol]                                  6.02214179000000E+23
 Boltzmann constant [J/K]                                   1.38065040000000E-23
 Atomic mass unit [kg]                                      1.66053878200000E-27
 Bohr radius [m]                                            5.29177208590000E-11

 *** Conversion factors ***

 [u] -> [a.u.]                                              1.82288848426455E+03
 [Angstrom] -> [Bohr] = [a.u.]                              1.88972613288564E+00
 [a.u.] = [Bohr] -> [Angstrom]                              5.29177208590000E-01
 [a.u.] -> [s]                                              2.41888432650478E-17
 [a.u.] -> [fs]                                             2.41888432650478E-02
 [a.u.] -> [J]                                              4.35974393937059E-18
 [a.u.] -> [N]                                              8.23872205491840E-08
 [a.u.] -> [K]                                              3.15774647902944E+05
 [a.u.] -> [kJ/mol]                                         2.62549961709828E+03
 [a.u.] -> [kcal/mol]                                       6.27509468713739E+02
 [a.u.] -> [Pa]                                             2.94210107994716E+13
 [a.u.] -> [bar]                                            2.94210107994716E+08
 [a.u.] -> [atm]                                            2.90362800883016E+08
 [a.u.] -> [eV]                                             2.72113838565563E+01
 [a.u.] -> [Hz]                                             6.57968392072181E+15
 [a.u.] -> [1/cm] (wave numbers)                            2.19474631370540E+05
 [a.u./Bohr**2] -> [1/cm]                                   5.14048714338585E+03
 
 MIXED_ENV| Number of created MPI groups:                                      1
 MIXED_ENV| Task to group correspondence:
  (   0 :    0)  (   1 :    0)  (   2 :    0)  (   3 :    0)
  (   4 :    0)  (   5 :    0)  (   6 :    0)  (   7 :    0)
  (   8 :    0)  (   9 :    0)  (  10 :    0)  (  11 :    0)
  (  12 :    0)  (  13 :    0)  (  14 :    0)  (  15 :    0)
          ----------------------------------------------------------------------
 COLVARS| COLVAR INPUT INDEX:        1
 COLVARS| ENERGY          >>> ATOMS:                                        all!
          ----------------------------------------------------------------------

 CELL_TOP| Volume [angstrom^3]:                                         8000.000
 CELL_TOP| Vector a [angstrom    20.000     0.000     0.000    |a| =      20.000
 CELL_TOP| Vector b [angstrom     0.000    20.000     0.000    |b| =      20.000
 CELL_TOP| Vector c [angstrom     0.000     0.000    20.000    |c| =      20.000
 CELL_TOP| Angle (b,c), alpha [degree]:                                   90.000
 CELL_TOP| Angle (a,c), beta  [degree]:                                   90.000
 CELL_TOP| Angle (a,b), gamma [degree]:                                   90.000
 CELL_TOP| Numerically orthorhombic:                                         YES

 GENERATE|  Preliminary Number of Bonds generated:                             0
 GENERATE|  Achieved consistency in connectivity generation.

 CELL| Volume [angstrom^3]:                                             8000.000
 CELL| Vector a [angstrom]:      20.000     0.000     0.000    |a| =      20.000
 CELL| Vector b [angstrom]:       0.000    20.000     0.000    |b| =      20.000
 CELL| Vector c [angstrom]:       0.000     0.000    20.000    |c| =      20.000
 CELL| Angle (b,c), alpha [degree]:                                       90.000
 CELL| Angle (a,c), beta  [degree]:                                       90.000
 CELL| Angle (a,b), gamma [degree]:                                       90.000
 CELL| Numerically orthorhombic:                                             YES

 CELL_REF| Volume [angstrom^3]:                                         8000.000
 CELL_REF| Vector a [angstrom    20.000     0.000     0.000    |a| =      20.000
 CELL_REF| Vector b [angstrom     0.000    20.000     0.000    |b| =      20.000
 CELL_REF| Vector c [angstrom     0.000     0.000    20.000    |c| =      20.000
 CELL_REF| Angle (b,c), alpha [degree]:                                   90.000
 CELL_REF| Angle (a,c), beta  [degree]:                                   90.000
 CELL_REF| Angle (a,b), gamma [degree]:                                   90.000
 CELL_REF| Numerically orthorhombic:                                         YES


 MOLECULE KIND INFORMATION


 All atoms are their own molecule, skipping detailed information
 nspins, nimgs, gapw_xc           2           1 F 

 ####### CHECKS ON A and B #######
  E_A before:  -116.03121154640323     
  E_B before:  -116.03121154658386     
 ####### - #######
##Inside build_kohn_sham_matrix() before doing any function calls
 i). ELECTRON ONLY CALLS
 1. Electron_pw   126.49120107073584     
 2. Electron_1c  -6.2465764101843604     
 ########## After 1st poisson call pure hartree  (sum of above two quantities) ##########   120.24462466055148     
 ########################
ii). NUCLEAR ONLY CALLS
 1. Nuclear_pw   301.39371727703366     
 2. Nuclear_1c  -133.62629575339506     
iii). REGULAR CALL (ELECTRON+NUCLEAR)
 1. Hartree_pw   66.848235780094228     
 2. Hartree_1c  -60.802565126389503     
 Regular: Before call to qs_vxc Regular_exc, exc1   0.0000000000000000        0.0000000000000000     
 Regular: After call to qs_vxc_create Regular_exc, exc1   0.0000000000000000        0.0000000000000000     
 iv). EXCHANGE ENERGY   -12.837663632000979     
 v). POTENTIAL ENERGY FROM CORE HAMILTONIAN   -117.64044329788260     
 vi). KINETIC ENERGY    167.70181302561247     
 vii). SELF ENERGY   -159.30058829583706     
      
 E_NUC is    8.4668332278015441     
      
IN build_kohn_sham_matrix() CALLING qs_ks_atom(),updates single atom contributions due to gapw
Inside build_kohn_sham_matrix() after doing all function calls and evaluating energy
 CHECK ON A IS DONE, E_A after passing modified PA_hat density:  -116.03121154640345     
##Inside build_kohn_sham_matrix() before doing any function calls
 i). ELECTRON ONLY CALLS
 1. Electron_pw   126.49120106391061     
 2. Electron_1c  -6.2465764095734002     
 ########## After 1st poisson call pure hartree  (sum of above two quantities) ##########   120.24462465433720     
 ########################
ii). NUCLEAR ONLY CALLS
 1. Nuclear_pw   301.39371727703366     
 2. Nuclear_1c  -133.62629575339506     
iii). REGULAR CALL (ELECTRON+NUCLEAR)
 1. Hartree_pw   66.848235784707001     
 2. Hartree_1c  -60.802565129678165     
 Regular: Before call to qs_vxc Regular_exc, exc1   0.0000000000000000        0.0000000000000000     
 Regular: After call to qs_vxc_create Regular_exc, exc1   0.0000000000000000        0.0000000000000000     
 iv). EXCHANGE ENERGY   -12.837663631341293     
 v). POTENTIAL ENERGY FROM CORE HAMILTONIAN   -117.64044329177351     
 vi). KINETIC ENERGY    167.70181301733919     
 vii). SELF ENERGY   -159.30058829583706     
      
 E_NUC is    8.4668332278015441     
      
IN build_kohn_sham_matrix() CALLING qs_ks_atom(),updates single atom contributions due to gapw
Inside build_kohn_sham_matrix() after doing all function calls and evaluating energy
 CHECK ON B IS DONE, E_B after passing modified PB_hat density:  -116.03121154658382     
 DOING ANTI-SYMMETRIC PART OF VAB
##Inside build_kohn_sham_matrix() before doing any function calls
 i). ELECTRON ONLY CALLS
 1. Electron_pw   9.3331430089591254E-012
 2. Electron_1c  -2.5669117341727176E-045
 ########## After 1st poisson call pure hartree  (sum of above two quantities) ##########   9.3331430089591254E-012
 ########################
ii). NUCLEAR ONLY CALLS
 1. Nuclear_pw   301.39371727703366     
 2. Nuclear_1c  -133.62629575339506     
iii). REGULAR CALL (ELECTRON+NUCLEAR)
 1. Hartree_pw   301.39369562368313     
 2. Hartree_1c  -133.62629575339506     
 Regular: Before call to qs_vxc Regular_exc, exc1   0.0000000000000000        0.0000000000000000     
 Regular: After call to qs_vxc_create Regular_exc, exc1   0.0000000000000000        0.0000000000000000     
 iv). EXCHANGE ENERGY   -1.4577320136299379E-002
 v). POTENTIAL ENERGY FROM CORE HAMILTONIAN    1.2878379902494060E-010
 vi). KINETIC ENERGY   -5.9818264025175243E-006
 vii). SELF ENERGY   -159.30058829583706     
      
 E_NUC is    8.4668332278015441     
      
IN build_kohn_sham_matrix() CALLING qs_ks_atom(),updates single atom contributions due to gapw
Inside build_kohn_sham_matrix() after doing all function calls and evaluating energy
 DOING SYMMETRIC PART OF VAB
##Inside build_kohn_sham_matrix() before doing any function calls
 i). ELECTRON ONLY CALLS
 1. Electron_pw   4.4274029718314266E-005
 2. Electron_1c  -2.1892090888306887E-006
 ########## After 1st poisson call pure hartree  (sum of above two quantities) ##########   4.2084820629483575E-005
 ########################
 ehartree, ehartree_1c after multiplying with DTPROD/DHPROD   7.4800381523784515E-002  -3.6986394986344403E-003
 dtprod, dhprod are   1.0000000000000098        5.9189577401068134E-004
 J2_AB is    7.1101742025150072E-002
ii). NUCLEAR ONLY CALLS
 1. Nuclear_pw   301.39371727703366     
 2. Nuclear_1c  -133.62629575339506     
iii). REGULAR CALL (ELECTRON+NUCLEAR)
 1. Hartree_pw   301.18009482317137     
 2. Hartree_1c  -133.57948766872261     
 Regular: Before call to qs_vxc Regular_exc, exc1   0.0000000000000000        0.0000000000000000     
 Regular: After call to qs_vxc_create Regular_exc, exc1   0.0000000000000000        0.0000000000000000     
 iv). EXCHANGE ENERGY   -1.4581793064493359E-002
 v). POTENTIAL ENERGY FROM CORE HAMILTONIAN   -6.9643055209995919E-002
 vi). KINETIC ENERGY    9.9260270040091358E-002
 vii). SELF ENERGY   -159.30058829583706     
      
 E_NUC is    8.4668332278015441     
      
IN build_kohn_sham_matrix() CALLING qs_ks_atom(),updates single atom contributions due to gapw
 ########################
 #########  ET  #########
 ------------------------
 E_NUC   8.4668332278015441     
 HAA <a|H|a>  -124.49804477420508     
 HBB <b|H|b>  -124.49804477438545     
             
 <a|H1|b> -0.13723923918037650     
 <a|H2|b>   6.3544789618357772E-002
 ...<a|J2|b>   7.1101742025150072E-002
 ...<a|K2|b>  -7.5569524067923008E-003
 HAB <a|H|b>  -7.3694449562018732E-002
 SAB   5.9189577401068708E-004
 VAB   4.5829890556216661E-006
  VAB in different units 
 ------------------------
          1.2470947440291759E-004 eV
          1.0058498335577843      1/cm
          2.8758690274140321E-003 kcal/mol
          1.2032636010700310E-002 kJ/mol
          30154619398.117905      Hertz
 ------------------------
 ------------------------
 E+  -124.49804007557528     
 E-  -124.49804946758995     
 (E+ - E-)/2   4.6960073324646208E-006
          1.2778485811689778E-004 eV
          1.0306544782060256      1/cm
          2.9467890662706968E-003 kcal/mol
          1.2329365453276597E-002 kJ/mol
          30898243937.009178      Hertz
 ------------------------
 ------------------------
Inside build_kohn_sham_matrix() after doing all function calls and evaluating energy
 NO FORCE_EVAL section calculated the dipole

 ENERGY| Total FORCE_EVAL ( MIXED ) energy (a.u.):             0.000000000180634


 -------------------------------------------------------------------------------
 -                                                                             -
 -                                DBCSR STATISTICS                             -
 -                                                                             -
 -------------------------------------------------------------------------------
 COUNTER                                    TOTAL       BLAS       SMM       ACC
 flops    25 x    12 x    25               120000     100.0%      0.0%      0.0%
 flops    25 x    11 x    25               220000     100.0%      0.0%      0.0%
 flops    25 x    25 x    11              2970000     100.0%      0.0%      0.0%
 flops    25 x    25 x    12              3240000     100.0%      0.0%      0.0%
 flops inhomo. stacks                           0       0.0%      0.0%      0.0%
 flops total                         6.550000E+06     100.0%      0.0%      0.0%
 flops max/rank                      2.240000E+06     100.0%      0.0%      0.0%
 matmuls inhomo. stacks                         0       0.0%      0.0%      0.0%
 matmuls total                                456     100.0%      0.0%      0.0%
 number of processed stacks                   456     100.0%      0.0%      0.0%
 average stack size                                     1.0       0.0       0.0
 marketing flops                     8.620000E+06
 -------------------------------------------------------------------------------
 # multiplications                            150
 max memory usage/rank             723.341312E+06
 # max total images/rank                        1
 # max 3D layers                                1
 # MPI messages exchanged                   14400
 MPI messages size (bytes):
  total size                         4.416000E+06
  min size                           0.000000E+00
  max size                           5.000000E+03
  average size                     306.666656E+00
 MPI breakdown and total messages size (bytes):
             size <=      128               12564                        0
       128 < size <=     8192                1836                  4416000
      8192 < size <=    32768                   0                        0
     32768 < size <=   131072                   0                        0
    131072 < size <=  4194304                   0                        0
   4194304 < size <= 16777216                   0                        0
  16777216 < size                               0                        0
 -------------------------------------------------------------------------------

 MEMORY| Estimated peak process memory [MiB]                                 691

 -------------------------------------------------------------------------------
 -                                                                             -
 -                         MESSAGE PASSING PERFORMANCE                         -
 -                                                                             -
 -------------------------------------------------------------------------------

 ROUTINE             CALLS      AVE VOLUME [Bytes]
 MP_Group              295
 MP_Bcast             1032                 716589.
 MP_Allreduce         4122                  13920.
 MP_Sync               821
 MP_Alltoall          7114                5043688.
 MP_ISendRecv        13260                  79105.
 MP_Wait             37618
 MP_comm_split         141
 MP_ISend            17320                 531968.
 MP_IRecv            17320                 531829.
 MP_Recv                24                   1200.
 MP_Memory            5936
 -------------------------------------------------------------------------------


 -------------------------------------------------------------------------------
 -                                                                             -
 -                           R E F E R E N C E S                               -
 -                                                                             -
 -------------------------------------------------------------------------------
 
 CP2K version 6.1, the CP2K developers group (2018).
 CP2K is freely available from https://www.cp2k.org/ .

 Schuett, Ole; Messmer, Peter; Hutter, Juerg; VandeVondele, Joost. 
 Electronic Structure Calculations on Graphics Processing Units, John Wiley & Sons, Ltd, 173-190 (2016). 
 GPU-Accelerated Sparse Matrix-Matrix Multiplication for Linear Scaling Density Functional Theory.
 http://dx.doi.org/10.1002/9781118670712.ch8


 Borstnik, U; VandeVondele, J; Weber, V; Hutter, J. 
 PARALLEL COMPUTING, 40 (5-6), 47-58 (2014). 
 Sparse matrix multiplication: The distributed block-compressed sparse
 row library.
 http://dx.doi.org/10.1016/j.parco.2014.03.012


 Hutter, J; Iannuzzi, M; Schiffmann, F; VandeVondele, J. 
 WILEY INTERDISCIPLINARY REVIEWS-COMPUTATIONAL MOLECULAR SCIENCE, 4 (1), 15-25 (2014). 
 CP2K: atomistic simulations of condensed matter systems.
 http://dx.doi.org/10.1002/wcms.1159


 Guidon, M; Hutter, J; VandeVondele, J. 
 JOURNAL OF CHEMICAL THEORY AND COMPUTATION, 5 (11), 3010-3021 (2009). 
 Robust Periodic Hartree-Fock Exchange for Large-Scale Simulations Using
 Gaussian Basis Sets.
 http://dx.doi.org/10.1021/ct900494g


 Guidon, M; Schiffmann, F; Hutter, J; VandeVondele, J. 
 JOURNAL OF CHEMICAL PHYSICS, 128 (21), 214104 (2008). 
 Ab initio molecular dynamics using hybrid density functionals.
 http://dx.doi.org/10.1063/1.2931945


 VandeVondele, J; Hutter, J. 
 JOURNAL OF CHEMICAL PHYSICS, 127 (11), 114105 (2007). 
 Gaussian basis sets for accurate calculations on molecular systems in
 gas and condensed phases.
 http://dx.doi.org/10.1063/1.2770708


 Genovese, L; Deutsch, T; Goedecker, S. 
 JOURNAL OF CHEMICAL PHYSICS, 127 (5), 054704 (2007). 
 Efficient and accurate three-dimensional Poisson solver for surface
 problems.
 http://dx.doi.org/10.1063/1.2754685


 Genovese, L; Deutsch, T; Neelov, A; Goedecker, S; Beylkin, G. 
 JOURNAL OF CHEMICAL PHYSICS, 125 (7), 074105 (2006). 
 Efficient solution of Poisson's equation with free boundary conditions.
 http://dx.doi.org/10.1063/1.2335442


 Krack, M. 
 THEORETICAL CHEMISTRY ACCOUNTS, 114 (1-3), 145-152 (2005). 
 Pseudopotentials for H to Kr optimized for gradient-corrected
 exchange-correlation functionals.
 http://dx.doi.org/10.1007/s00214-005-0655-y


 Frigo, M; Johnson, SG. 
 PROCEEDINGS OF THE IEEE, 93 (2), 216-231 (2005). 
 The design and implementation of FFTW3.
 http://dx.doi.org/10.1109/JPROC.2004.840301


 Lippert, G; Hutter, J; Parrinello, M. 
 THEORETICAL CHEMISTRY ACCOUNTS, 103 (2), 124-140 (1999). 
 The Gaussian and augmented-plane-wave density functional method for ab
 initio molecular dynamics simulations.
 http://dx.doi.org/10.1007/s002140050523


 Krack, M; Parrinello, M. 
 PHYSICAL CHEMISTRY CHEMICAL PHYSICS, 2 (10), 2105-2112 (2000). 
 All-electron ab-initio molecular dynamics.
 http://dx.doi.org/10.1039/b001167n


 Hartwigsen, C; Goedecker, S; Hutter, J. 
 PHYSICAL REVIEW B, 58 (7), 3641-3662 (1998). 
 Relativistic separable dual-space Gaussian pseudopotentials from H to Rn.
 http://dx.doi.org/10.1103/PhysRevB.58.3641


 Goedecker, S; Teter, M; Hutter, J. 
 PHYSICAL REVIEW B, 54 (3), 1703-1710 (1996). 
 Separable dual-space Gaussian pseudopotentials.
 http://dx.doi.org/10.1103/PhysRevB.54.1703


 -------------------------------------------------------------------------------
 -                                                                             -
 -                                T I M I N G                                  -
 -                                                                             -
 -------------------------------------------------------------------------------
 SUBROUTINE                       CALLS  ASD         SELF TIME        TOTAL TIME
                                MAXIMUM       AVERAGE  MAXIMUM  AVERAGE  MAXIMUM
 CP2K                                 1  1.0    0.164    0.199 1154.764 1154.764
 qs_ks_update_qs_env                 74  4.8    0.002    0.002 1108.080 1108.106
 rebuild_ks_matrix                   74  5.8    0.000    0.000 1108.074 1108.101
 qs_ks_build_kohn_sham_matrix        74  6.8    0.043    0.060 1108.074 1108.101
 qs_energies                          2  2.0    0.003    0.003 1048.024 1048.045
 scf_env_do_scf                       2  3.0    0.000    0.000 1046.456 1046.459
 scf_env_do_scf_inner_loop           70  4.0    0.003    0.006 1046.453 1046.456
 prepare_gapw_den                    82  7.6    0.028    0.046  934.282  934.610
 calculate_rho_atom                 156  8.7   71.009  922.352   71.012  922.407
 mp_sum_dv                          169  8.5  851.417  908.286  851.417  908.286
 pw_transfer                       1718  9.1    0.076    0.086   74.647   76.914
 fft_wrap_pw1pw2                   1636 10.1    0.013    0.014   74.411   76.659
 fft_wrap_pw1pw2_140                760 10.8    4.261    5.107   69.514   72.888
 fft3d_ps                          1636 12.1   38.700   42.229   59.611   60.599
 mp_sum_d                          1917  6.6   52.246   58.805   52.246   58.805
 Vh_1c_gg_integrals                  82  7.6    3.496   53.562   53.927   54.787
 hfx_ks_matrix                       74  7.8    0.001    0.001   47.178   47.181
 integrate_four_center               74  8.8    0.073    0.090   47.176   47.177
 qs_rho_update_rho                   76  4.8    0.001    0.001   43.239   43.240
 calculate_rho_elec                 152  5.8    0.529    0.717   43.171   43.171
 density_rs2pw                      152  6.8    0.007    0.008   40.397   41.146
 pw_poisson_solve                    82  7.6    1.150    1.296   36.178   36.188
 calc_screening_functions             2 10.0   24.667   25.192   24.966   25.490
 rs_pw_transfer                    1330  9.3    0.017    0.020   24.476   25.404
 sum_up_and_integrate                70  8.0    0.001    0.001   23.643   23.731
 integrate_v_rspace                 140  9.0    0.109    0.306   23.642   23.730
 potential_pw2rs                    140 10.0    0.022    0.025   23.506   23.569
 -------------------------------------------------------------------------------

 The number of warnings for this run is : 0
 
 -------------------------------------------------------------------------------
  **** **** ******  **  PROGRAM ENDED AT                 2019-07-25 13:10:45.218
 ***** ** ***  *** **   PROGRAM RAN ON            cpn-p28-41.cbls.ccr.buffalo.ed
 **    ****   ******    PROGRAM RAN BY                                  pavankum
 ***** **    ** ** **   PROGRAM PROCESS ID                                 87308
  **** **  *******  **  PROGRAM STOPPED IN /projects/academic/mdupuis2/pavan/VAB
                                           _calculation/results_for_paper/2.Zn2+
                                           /gapw_pseudo/r_9
