 DBCSR| Multiplication driver                                               BLAS
 DBCSR| Multrec recursion limit                                              512
 DBCSR| Multiplication stack size                                           1000
 DBCSR| Maximum elements for images                                    UNLIMITED
 DBCSR| Multiplicative factor virtual images                                   1
 DBCSR| Multiplication size stacks                                             3
 DBCSR| Number of 3D layers                                               SINGLE
 DBCSR| Use MPI memory allocation                                              T
 DBCSR| Use RMA algorithm                                                      F
 DBCSR| Use Communication thread                                               T
 DBCSR| Communication thread load                                             87


  **** **** ******  **  PROGRAM STARTED AT               2019-08-07 09:02:35.371
 ***** ** ***  *** **   PROGRAM STARTED ON        cpn-u27-03.cbls.ccr.buffalo.ed
 **    ****   ******    PROGRAM STARTED BY                              pavankum
 ***** **    ** ** **   PROGRAM PROCESS ID                                 46280
  **** **  *******  **  PROGRAM STARTED IN /projects/academic/mdupuis2/pavan/VAB
                                           _calculation/results_for_paper/3.1D_F
                                           e_7units/blyp_plusU9/mixed

 CP2K| version string:                                          CP2K version 6.1
 CP2K| source code revision number:                                    svn:18464
 CP2K| cp2kflags: libint fftw3 libxc parallel mpi3 scalapack libderiv_max_am1=5 
 CP2K|            libint_max_am=6
 CP2K| is freely available from                            https://www.cp2k.org/
 CP2K| Program compiled at                          Fri Nov 30 14:17:09 EST 2018
 CP2K| Program compiled on                       srv-p22-12.cbls.ccr.buffalo.edu
 CP2K| Program compiled for                                                local
 CP2K| Data directory path    /projects/academic/mdupuis2/pavan/cp2k/cp2k-6.1/da
 CP2K| Input file name                                                 input.inp

 GLOBAL| Force Environment number                                              3
 GLOBAL| Basis set file name                                           BASIS_SET
 GLOBAL| Potential file name                                           POTENTIAL
 GLOBAL| MM Potential file name                                     MM_POTENTIAL
 GLOBAL| Coordinate file name                                     ./midpoint.xyz
 GLOBAL| Force Environment number                                              1
 GLOBAL| Basis set file name            /projects/academic/mdupuis2/pavan/BASIS_
 GLOBAL| Potential file name            /projects/academic/mdupuis2/pavan/POTENT
 GLOBAL| MM Potential file name                                     MM_POTENTIAL
 GLOBAL| Coordinate file name                                     ./midpoint.xyz
 GLOBAL| Force Environment number                                              2
 GLOBAL| Basis set file name            /projects/academic/mdupuis2/pavan/BASIS_
 GLOBAL| Potential file name            /projects/academic/mdupuis2/pavan/POTENT
 GLOBAL| MM Potential file name                                     MM_POTENTIAL
 GLOBAL| Coordinate file name                                     ./midpoint.xyz
 GLOBAL| Method name                                                        CP2K
 GLOBAL| Project name                                                      p_fe_
 GLOBAL| Preferred FFT library                                             FFTW3
 GLOBAL| Preferred diagonalization lib.                                       SL
 GLOBAL| Run type                                                         ENERGY
 GLOBAL| All-to-all communication in single precision                          F
 GLOBAL| FFTs using library dependent lengths                                  T
 GLOBAL| Global print level                                               MEDIUM
 GLOBAL| Total number of message passing processes                           144
 GLOBAL| Number of threads for this process                                    1
 GLOBAL| This output is from process                                           0
 GLOBAL| CPU model name :  Intel(R) Xeon(R) Gold 6126 CPU @ 2.60GHz

 MEMORY| system memory details [Kb]
 MEMORY|                        rank 0           min           max       average
 MEMORY| MemTotal            196307064     196307064     196307064     196307064
 MEMORY| MemFree             188275920     176310284     188515792     186343348
 MEMORY| Buffers                500488        500112        502816        501439
 MEMORY| Cached                1339416       1244388      13328520       3314675
 MEMORY| Slab                   619936        614744        649440        623018
 MEMORY| SReclaimable           289144        288288        317728        294648
 MEMORY| MemLikelyFree       190404968     190404968     190553672     190454110


 *** Fundamental physical constants (SI units) ***

 *** Literature: B. J. Mohr and B. N. Taylor,
 ***             CODATA recommended values of the fundamental physical
 ***             constants: 2006, Web Version 5.1
 ***             http://physics.nist.gov/constants

 Speed of light in vacuum [m/s]                             2.99792458000000E+08
 Magnetic constant or permeability of vacuum [N/A**2]       1.25663706143592E-06
 Electric constant or permittivity of vacuum [F/m]          8.85418781762039E-12
 Planck constant (h) [J*s]                                  6.62606896000000E-34
 Planck constant (h-bar) [J*s]                              1.05457162825177E-34
 Elementary charge [C]                                      1.60217648700000E-19
 Electron mass [kg]                                         9.10938215000000E-31
 Electron g factor [ ]                                     -2.00231930436220E+00
 Proton mass [kg]                                           1.67262163700000E-27
 Fine-structure constant                                    7.29735253760000E-03
 Rydberg constant [1/m]                                     1.09737315685270E+07
 Avogadro constant [1/mol]                                  6.02214179000000E+23
 Boltzmann constant [J/K]                                   1.38065040000000E-23
 Atomic mass unit [kg]                                      1.66053878200000E-27
 Bohr radius [m]                                            5.29177208590000E-11

 *** Conversion factors ***

 [u] -> [a.u.]                                              1.82288848426455E+03
 [Angstrom] -> [Bohr] = [a.u.]                              1.88972613288564E+00
 [a.u.] = [Bohr] -> [Angstrom]                              5.29177208590000E-01
 [a.u.] -> [s]                                              2.41888432650478E-17
 [a.u.] -> [fs]                                             2.41888432650478E-02
 [a.u.] -> [J]                                              4.35974393937059E-18
 [a.u.] -> [N]                                              8.23872205491840E-08
 [a.u.] -> [K]                                              3.15774647902944E+05
 [a.u.] -> [kJ/mol]                                         2.62549961709828E+03
 [a.u.] -> [kcal/mol]                                       6.27509468713739E+02
 [a.u.] -> [Pa]                                             2.94210107994716E+13
 [a.u.] -> [bar]                                            2.94210107994716E+08
 [a.u.] -> [atm]                                            2.90362800883016E+08
 [a.u.] -> [eV]                                             2.72113838565563E+01
 [a.u.] -> [Hz]                                             6.57968392072181E+15
 [a.u.] -> [1/cm] (wave numbers)                            2.19474631370540E+05
 [a.u./Bohr**2] -> [1/cm]                                   5.14048714338585E+03
 
 MIXED_ENV| Number of created MPI groups:                                      1
 MIXED_ENV| Task to group correspondence:
  (   0 :    0)  (   1 :    0)  (   2 :    0)  (   3 :    0)
  (   4 :    0)  (   5 :    0)  (   6 :    0)  (   7 :    0)
  (   8 :    0)  (   9 :    0)  (  10 :    0)  (  11 :    0)
  (  12 :    0)  (  13 :    0)  (  14 :    0)  (  15 :    0)
  (  16 :    0)  (  17 :    0)  (  18 :    0)  (  19 :    0)
  (  20 :    0)  (  21 :    0)  (  22 :    0)  (  23 :    0)
  (  24 :    0)  (  25 :    0)  (  26 :    0)  (  27 :    0)
  (  28 :    0)  (  29 :    0)  (  30 :    0)  (  31 :    0)
  (  32 :    0)  (  33 :    0)  (  34 :    0)  (  35 :    0)
  (  36 :    0)  (  37 :    0)  (  38 :    0)  (  39 :    0)
  (  40 :    0)  (  41 :    0)  (  42 :    0)  (  43 :    0)
  (  44 :    0)  (  45 :    0)  (  46 :    0)  (  47 :    0)
  (  48 :    0)  (  49 :    0)  (  50 :    0)  (  51 :    0)
  (  52 :    0)  (  53 :    0)  (  54 :    0)  (  55 :    0)
  (  56 :    0)  (  57 :    0)  (  58 :    0)  (  59 :    0)
  (  60 :    0)  (  61 :    0)  (  62 :    0)  (  63 :    0)
  (  64 :    0)  (  65 :    0)  (  66 :    0)  (  67 :    0)
  (  68 :    0)  (  69 :    0)  (  70 :    0)  (  71 :    0)
  (  72 :    0)  (  73 :    0)  (  74 :    0)  (  75 :    0)
  (  76 :    0)  (  77 :    0)  (  78 :    0)  (  79 :    0)
  (  80 :    0)  (  81 :    0)  (  82 :    0)  (  83 :    0)
  (  84 :    0)  (  85 :    0)  (  86 :    0)  (  87 :    0)
  (  88 :    0)  (  89 :    0)  (  90 :    0)  (  91 :    0)
  (  92 :    0)  (  93 :    0)  (  94 :    0)  (  95 :    0)
  (  96 :    0)  (  97 :    0)  (  98 :    0)  (  99 :    0)
  ( 100 :    0)  ( 101 :    0)  ( 102 :    0)  ( 103 :    0)
  ( 104 :    0)  ( 105 :    0)  ( 106 :    0)  ( 107 :    0)
  ( 108 :    0)  ( 109 :    0)  ( 110 :    0)  ( 111 :    0)
  ( 112 :    0)  ( 113 :    0)  ( 114 :    0)  ( 115 :    0)
  ( 116 :    0)  ( 117 :    0)  ( 118 :    0)  ( 119 :    0)
  ( 120 :    0)  ( 121 :    0)  ( 122 :    0)  ( 123 :    0)
  ( 124 :    0)  ( 125 :    0)  ( 126 :    0)  ( 127 :    0)
  ( 128 :    0)  ( 129 :    0)  ( 130 :    0)  ( 131 :    0)
  ( 132 :    0)  ( 133 :    0)  ( 134 :    0)  ( 135 :    0)
  ( 136 :    0)  ( 137 :    0)  ( 138 :    0)  ( 139 :    0)
  ( 140 :    0)  ( 141 :    0)  ( 142 :    0)  ( 143 :    0)
          ----------------------------------------------------------------------
 COLVARS| COLVAR INPUT INDEX:        1
 COLVARS| ENERGY          >>> ATOMS:                                        all!
          ----------------------------------------------------------------------

 CELL_TOP| Volume [angstrom^3]:                                        26196.625
 CELL_TOP| Vector a [angstrom    21.385     0.000     0.000    |a| =      21.385
 CELL_TOP| Vector b [angstrom     0.000    35.000     0.000    |b| =      35.000
 CELL_TOP| Vector c [angstrom     0.000     0.000    35.000    |c| =      35.000
 CELL_TOP| Angle (b,c), alpha [degree]:                                   90.000
 CELL_TOP| Angle (a,c), beta  [degree]:                                   90.000
 CELL_TOP| Angle (a,b), gamma [degree]:                                   90.000
 CELL_TOP| Numerically orthorhombic:                                         YES

 GENERATE|  Preliminary Number of Bonds generated:                             0
 GENERATE|  Achieved consistency in connectivity generation.

 CELL| Volume [angstrom^3]:                                            26196.625
 CELL| Vector a [angstrom]:      21.385     0.000     0.000    |a| =      21.385
 CELL| Vector b [angstrom]:       0.000    35.000     0.000    |b| =      35.000
 CELL| Vector c [angstrom]:       0.000     0.000    35.000    |c| =      35.000
 CELL| Angle (b,c), alpha [degree]:                                       90.000
 CELL| Angle (a,c), beta  [degree]:                                       90.000
 CELL| Angle (a,b), gamma [degree]:                                       90.000
 CELL| Numerically orthorhombic:                                             YES

 CELL_REF| Volume [angstrom^3]:                                        26196.625
 CELL_REF| Vector a [angstrom    21.385     0.000     0.000    |a| =      21.385
 CELL_REF| Vector b [angstrom     0.000    35.000     0.000    |b| =      35.000
 CELL_REF| Vector c [angstrom     0.000     0.000    35.000    |c| =      35.000
 CELL_REF| Angle (b,c), alpha [degree]:                                   90.000
 CELL_REF| Angle (a,c), beta  [degree]:                                   90.000
 CELL_REF| Angle (a,b), gamma [degree]:                                   90.000
 CELL_REF| Numerically orthorhombic:                                         YES


 MOLECULE KIND INFORMATION


 All atoms are their own molecule, skipping detailed information

 *** WARNING in force_env_methods.F:1097 :: ASSERTION (cond) failed at   ***
 *** line   1098 Error (0.129985E-11) in computing numerical derivatives ***
 *** larger then(0.100000E-11) .                                         ***


 *** WARNING in force_env_methods.F:1097 :: ASSERTION (cond) failed at   ***
 *** line   1098 Error (0.129985E-11) in computing numerical derivatives ***
 *** larger then(0.100000E-11) .                                         ***


  HFX_INFO| Replica ID:                                                        1
  HFX_INFO| EPS_SCHWARZ:                                                 1.0E-10
  HFX_INFO| EPS_SCHWARZ_FORCES                                           1.0E-06
  HFX_INFO| EPS_STORAGE_SCALING:                                         1.0E+00
  HFX_INFO| NBINS:                                                            64
  HFX_INFO| BLOCK_SIZE:                                                        1
  HFX_INFO| FRACTION:                                               1.0000000000
  HFX_INFO| Interaction Potential:                                     TRUNCATED
  HFX_INFO| Cutoff Radius [angstrom]:                              10.6711000000
  HFX_INFO| NUMBER_OF_SHELLS:                                               AUTO
  HFX_INFO| Number of periodic shells considered:                             -1
  HFX_INFO| Number of periodic cells considered:                              27

 nspins, nimgs, gapw_xc           2           1 F 

 ####### CHECKS ON A and B #######
  E_A before:  -1335.6000720538848     
  E_B before:  -1335.6000379524046     
 ####### - #######
##Inside build_kohn_sham_matrix() before doing any function calls
 i). ELECTRON ONLY CALLS
 1. Electron_pw   4627.0101931318695     
 2. Electron_1c   0.0000000000000000     
 ########## After 1st poisson call pure hartree  (sum of above two quantities) ##########   4627.0101931318695     
 ########################
 1. Nuclear_pw   6230.8078527413400     
 2. Nuclear_1c   0.0000000000000000     
 1. Hartree_pw   755.95998140957909     
 2. Hartree_1c   0.0000000000000000     
 Regular: Before call to qs_vxc Regular_exc, exc1  -203.88061572618113        0.0000000000000000     
 Regular: After call to qs_vxc_create Regular_exc, exc1   0.0000000000000000        0.0000000000000000     

  HFX_MEM_INFO| Est. max. program size before HFX [MiB]:                     968
  HFX_MEM_INFO| Number of cart. primitive ERI's calculated:          76208495220
  HFX_MEM_INFO| Number of sph. ERI's calculated:                      4837232186
  HFX_MEM_INFO| Number of sph. ERI's stored in-core:                  4837232186
  HFX_MEM_INFO| Number of sph. ERI's stored on disk:                           0
  HFX_MEM_INFO| Number of sph. ERI's calculated on the fly:                    0
  HFX_MEM_INFO| Total memory consumption ERI's RAM [MiB]:                  12409
  HFX_MEM_INFO| Whereof max-vals [MiB]:                                        4
  HFX_MEM_INFO| Total compression factor ERI's RAM:                         2.97
  HFX_MEM_INFO| Total memory consumption ERI's disk [MiB]:                     0
  HFX_MEM_INFO| Total compression factor ERI's disk:                        0.00
  HFX_MEM_INFO| Size of density/Fock matrix [MiB]:                             0
  HFX_MEM_INFO| Size of buffers [MiB]:                                         1
  HFX_MEM_INFO| Number of periodic image cells considered:                    27
  HFX_MEM_INFO| Est. max. program size after HFX  [MiB]:                    1041

 iv). EXCHANGE ENERGY   -190.44019861429146     
 v). POTENTIAL ENERGY FROM CORE HAMILTONIAN   -97.631113964856581     
 vi). KINETIC ENERGY    841.88488196871174     
 vii). SELF ENERGY   -2631.5958042947350     
      
 E_NUC is    3599.2120484466050     
      
IN build_kohn_sham_matrix() CALLING qs_ks_atom(),updates single atom contributions due to gapw
Inside build_kohn_sham_matrix() after doing all function calls and evaluating energy
 CHECK ON A IS DONE, E_A after passing modified PA_hat density:  -1321.8222530818084     
##Inside build_kohn_sham_matrix() before doing any function calls
 i). ELECTRON ONLY CALLS
 1. Electron_pw   4627.0141425602387     
 2. Electron_1c   0.0000000000000000     
 ########## After 1st poisson call pure hartree  (sum of above two quantities) ##########   4627.0141425602387     
 ########################
 1. Nuclear_pw   6230.8078527413400     
 2. Nuclear_1c   0.0000000000000000     
 1. Hartree_pw   755.96094472779669     
 2. Hartree_1c   0.0000000000000000     
 Regular: Before call to qs_vxc Regular_exc, exc1   0.0000000000000000        0.0000000000000000     
 Regular: After call to qs_vxc_create Regular_exc, exc1   0.0000000000000000        0.0000000000000000     
 iv). EXCHANGE ENERGY   -190.44032044726040     
 v). POTENTIAL ENERGY FROM CORE HAMILTONIAN   -97.630737104877880     
 vi). KINETIC ENERGY    841.88356216709963     
 vii). SELF ENERGY   -2631.5958042947350     
      
 E_NUC is    3599.2120484466050     
      
IN build_kohn_sham_matrix() CALLING qs_ks_atom(),updates single atom contributions due to gapw
Inside build_kohn_sham_matrix() after doing all function calls and evaluating energy
 CHECK ON B IS DONE, E_B after passing modified PB_hat density:  -1321.8223545381932     
 DOING ANTI-SYMMETRIC PART OF VAB
##Inside build_kohn_sham_matrix() before doing any function calls
 i). ELECTRON ONLY CALLS
 1. Electron_pw   1.0375120042510576E-003
 2. Electron_1c   0.0000000000000000     
 ########## After 1st poisson call pure hartree  (sum of above two quantities) ##########   1.0375120042510576E-003
 ########################
 1. Nuclear_pw   6230.8078527413400     
 2. Nuclear_1c   0.0000000000000000     
 1. Hartree_pw   6232.2220523369360     
 2. Hartree_1c   0.0000000000000000     
 Regular: Before call to qs_vxc Regular_exc, exc1   0.0000000000000000        0.0000000000000000     
 Regular: After call to qs_vxc_create Regular_exc, exc1   0.0000000000000000        0.0000000000000000     
 iv). EXCHANGE ENERGY   -3.3333635647941812E-002
 v). POTENTIAL ENERGY FROM CORE HAMILTONIAN   -1.2455967226551162E-003
 vi). KINETIC ENERGY   -8.7278184689153198E-003
 vii). SELF ENERGY   -2631.5958042947350     
      
 E_NUC is    3599.2120484466050     
      
IN build_kohn_sham_matrix() CALLING qs_ks_atom(),updates single atom contributions due to gapw
Inside build_kohn_sham_matrix() after doing all function calls and evaluating energy
 DOING SYMMETRIC PART OF VAB
##Inside build_kohn_sham_matrix() before doing any function calls
 i). ELECTRON ONLY CALLS
 1. Electron_pw   18.566527538662037     
 2. Electron_1c   0.0000000000000000     
 ########## After 1st poisson call pure hartree  (sum of above two quantities) ##########   18.566527538662037     
 ########################
 ehartree, ehartree_1c after multiplying with DTPROD/DHPROD  -293.00321197896534       -0.0000000000000000     
 dtprod, dhprod are  -1.0000000000002809        6.3366293540837157E-002
 J2_AB is   -293.00321197896534     
 1. Nuclear_pw   6230.8078527413400     
 2. Nuclear_1c   0.0000000000000000     
 1. Hartree_pw   5609.5082902311187     
 2. Hartree_1c   0.0000000000000000     
 Regular: Before call to qs_vxc Regular_exc, exc1   0.0000000000000000        0.0000000000000000     
 Regular: After call to qs_vxc_create Regular_exc, exc1   0.0000000000000000        0.0000000000000000     
 iv). EXCHANGE ENERGY  -0.79724952099988777     
 v). POTENTIAL ENERGY FROM CORE HAMILTONIAN   -6.1537990752836578     
 vi). KINETIC ENERGY    53.238251435179222     
 vii). SELF ENERGY   -2631.5958042947350     
      
 E_NUC is    3599.2120484466050     
      
IN build_kohn_sham_matrix() CALLING qs_ks_atom(),updates single atom contributions due to gapw
 ########################
 #########  ET  #########
 ------------------------
 E_NUC   3599.2120484466050     
 HAA <a|H|a>  -4921.0343023559817     
 HBB <b|H|b>  -4921.0344038123658     
             
 <a|H1|b>   592.78163810293790     
 <a|H2|b>  -280.94765621476643     
 ...<a|J2|b>  -293.00321197896534     
 ...<a|K2|b>   12.055555764198926     
 HAB <a|H|b>   311.83398188817148     
 SAB  -6.3366293540854962E-002
 VAB   6.3000451729496205E-003
  VAB in different units 
 ------------------------
         0.17143294751477672      eV
          1382.7000919508680      1/cm
          3.9533379993501723      kcal/mol
          16.540766189281122      kJ/mol
          41452305924277.664      Hertz
 ------------------------
 ------------------------
 E+  -4921.0276531335285     
 E-  -4921.0402546395853     
 (E+ - E-)/2   6.3007530282208259E-003
         0.17145220923627638      eV
          1382.8554482255795      1/cm
          3.9537821852353328      kcal/mol
          16.542624663024633      kJ/mol
          41456963388223.812      Hertz
 ------------------------
 ------------------------
Inside build_kohn_sham_matrix() after doing all function calls and evaluating energy
 NO FORCE_EVAL section calculated the dipole

 ENERGY| Total FORCE_EVAL ( MIXED ) energy (a.u.):            -0.000034101480196


 -------------------------------------------------------------------------------
 -                                                                             -
 -                                DBCSR STATISTICS                             -
 -                                                                             -
 -------------------------------------------------------------------------------
 COUNTER                                    TOTAL       BLAS       SMM       ACC
 flops    13 x    13 x    13                 8788     100.0%      0.0%      0.0%
 flops    15 x    15 x    15                13500     100.0%      0.0%      0.0%
 flops     2 x    13 x    13                56784     100.0%      0.0%      0.0%
 flops     2 x    15 x    15                75600     100.0%      0.0%      0.0%
 flops    38 x    13 x    13                77064     100.0%      0.0%      0.0%
 flops    13 x    13 x    38                77064     100.0%      0.0%      0.0%
 flops    13 x    13 x    32                86528     100.0%      0.0%      0.0%
 flops    13 x    32 x    13                86528     100.0%      0.0%      0.0%
 flops    32 x    13 x    13                86528     100.0%      0.0%      0.0%
 flops    19 x    13 x    13                89908     100.0%      0.0%      0.0%
 flops    38 x    15 x    15               102600     100.0%      0.0%      0.0%
 flops    15 x    15 x    38               102600     100.0%      0.0%      0.0%
 flops    19 x    15 x    15               119700     100.0%      0.0%      0.0%
 flops    15 x    15 x    32               144000     100.0%      0.0%      0.0%
 flops    15 x    32 x    15               144000     100.0%      0.0%      0.0%
 flops    32 x    15 x    15               144000     100.0%      0.0%      0.0%
 flops    38 x    13 x    38               150176     100.0%      0.0%      0.0%
 flops     8 x    13 x    13               151424     100.0%      0.0%      0.0%
 flops    38 x    15 x    38               173280     100.0%      0.0%      0.0%
 flops     8 x    15 x    15               201600     100.0%      0.0%      0.0%
 flops    36 x    13 x    13               292032     100.0%      0.0%      0.0%
 flops    13 x    13 x    36               292032     100.0%      0.0%      0.0%
 flops     2 x     2 x    13               375648     100.0%      0.0%      0.0%
 flops    36 x    15 x    15               388800     100.0%      0.0%      0.0%
 flops    15 x    15 x    36               388800     100.0%      0.0%      0.0%
 flops     2 x     2 x    15               433440     100.0%      0.0%      0.0%
 flops    37 x    13 x    13               525252     100.0%      0.0%      0.0%
 flops    13 x    13 x    37               525252     100.0%      0.0%      0.0%
 flops    36 x    13 x    38               569088     100.0%      0.0%      0.0%
 flops    38 x    13 x    36               569088     100.0%      0.0%      0.0%
 flops    19 x     2 x    13               580944     100.0%      0.0%      0.0%
 flops     2 x    19 x    13               580944     100.0%      0.0%      0.0%
 flops    36 x    15 x    38               656640     100.0%      0.0%      0.0%
 flops    38 x    15 x    36               656640     100.0%      0.0%      0.0%
 flops    19 x     2 x    15               670320     100.0%      0.0%      0.0%
 flops     2 x    19 x    15               670320     100.0%      0.0%      0.0%
 flops    37 x    15 x    15               699300     100.0%      0.0%      0.0%
 flops    15 x    15 x    37               699300     100.0%      0.0%      0.0%
 flops    38 x    13 x    32               758784     100.0%      0.0%      0.0%
 flops    38 x    32 x    13               758784     100.0%      0.0%      0.0%
 flops    13 x    32 x    38               758784     100.0%      0.0%      0.0%
 flops    32 x    13 x    38               758784     100.0%      0.0%      0.0%
 flops    32 x    32 x    13               851968     100.0%      0.0%      0.0%
 flops    13 x    32 x    32               851968     100.0%      0.0%      0.0%
 flops    32 x    13 x    32               851968     100.0%      0.0%      0.0%
 flops     8 x     2 x    13               978432     100.0%      0.0%      0.0%
 flops     2 x     8 x    13               978432     100.0%      0.0%      0.0%
 flops    37 x    13 x    38              1023568     100.0%      0.0%      0.0%
 flops    38 x    13 x    37              1023568     100.0%      0.0%      0.0%
 flops    19 x    19 x    13              1051232     100.0%      0.0%      0.0%
 flops    38 x    15 x    32              1094400     100.0%      0.0%      0.0%
 flops    38 x    32 x    15              1094400     100.0%      0.0%      0.0%
 flops    15 x    32 x    38              1094400     100.0%      0.0%      0.0%
 flops    32 x    15 x    38              1094400     100.0%      0.0%      0.0%
 flops     8 x     2 x    15              1128960     100.0%      0.0%      0.0%
 flops     2 x     8 x    15              1128960     100.0%      0.0%      0.0%
 flops    37 x    15 x    38              1181040     100.0%      0.0%      0.0%
 flops    38 x    15 x    37              1181040     100.0%      0.0%      0.0%
 flops    19 x    19 x    15              1212960     100.0%      0.0%      0.0%
 flops    32 x    32 x    15              1536000     100.0%      0.0%      0.0%
 flops    15 x    32 x    32              1536000     100.0%      0.0%      0.0%
 flops    32 x    15 x    32              1536000     100.0%      0.0%      0.0%
 flops     8 x    19 x    13              1549184     100.0%      0.0%      0.0%
 flops    19 x     8 x    13              1549184     100.0%      0.0%      0.0%
 flops     2 x    15 x     2              1693440     100.0%      0.0%      0.0%
 flops     8 x    19 x    15              1787520     100.0%      0.0%      0.0%
 flops    19 x     8 x    15              1787520     100.0%      0.0%      0.0%
 flops     2 x    13 x     2              1834560     100.0%      0.0%      0.0%
 flops    36 x    13 x    36              2156544     100.0%      0.0%      0.0%
 flops    36 x    15 x    36              2488320     100.0%      0.0%      0.0%
 flops     2 x    15 x    19              2681280     100.0%      0.0%      0.0%
 flops    19 x    15 x     2              2681280     100.0%      0.0%      0.0%
 flops     8 x     8 x    13              2702336     100.0%      0.0%      0.0%
 flops    36 x    13 x    32              2875392     100.0%      0.0%      0.0%
 flops    36 x    32 x    13              2875392     100.0%      0.0%      0.0%
 flops    13 x    32 x    36              2875392     100.0%      0.0%      0.0%
 flops    32 x    13 x    36              2875392     100.0%      0.0%      0.0%
 flops     2 x    13 x    19              2904720     100.0%      0.0%      0.0%
 flops    19 x    13 x     2              2904720     100.0%      0.0%      0.0%
 flops     2 x    32 x    32              3096576     100.0%      0.0%      0.0%
 flops     8 x     8 x    15              3118080     100.0%      0.0%      0.0%
 flops    38 x    32 x    38              3326976     100.0%      0.0%      0.0%
 flops    36 x    13 x    37              3878784     100.0%      0.0%      0.0%
 flops    37 x    13 x    36              3878784     100.0%      0.0%      0.0%
 flops    36 x    15 x    32              4147200     100.0%      0.0%      0.0%
 flops    36 x    32 x    15              4147200     100.0%      0.0%      0.0%
 flops    15 x    32 x    36              4147200     100.0%      0.0%      0.0%
 flops    32 x    15 x    36              4147200     100.0%      0.0%      0.0%
 flops    19 x    15 x    19              4245360     100.0%      0.0%      0.0%
 flops    36 x    15 x    37              4475520     100.0%      0.0%      0.0%
 flops    37 x    15 x    36              4475520     100.0%      0.0%      0.0%
 flops     2 x    15 x     8              4515840     100.0%      0.0%      0.0%
 flops     8 x    15 x     2              4515840     100.0%      0.0%      0.0%
 flops    19 x    13 x    19              4599140     100.0%      0.0%      0.0%
 flops     2 x    13 x     8              4892160     100.0%      0.0%      0.0%
 flops     8 x    13 x     2              4892160     100.0%      0.0%      0.0%
 flops    19 x    32 x    32              4902912     100.0%      0.0%      0.0%
 flops    37 x    32 x    13              5171712     100.0%      0.0%      0.0%
 flops    37 x    13 x    32              5171712     100.0%      0.0%      0.0%
 flops    13 x    32 x    37              5171712     100.0%      0.0%      0.0%
 flops    32 x    13 x    37              5171712     100.0%      0.0%      0.0%
 flops    37 x    13 x    37              6976424     100.0%      0.0%      0.0%
 flops     8 x    15 x    19              7150080     100.0%      0.0%      0.0%
 flops    19 x    15 x     8              7150080     100.0%      0.0%      0.0%
 flops    37 x    32 x    15              7459200     100.0%      0.0%      0.0%
 flops    37 x    15 x    32              7459200     100.0%      0.0%      0.0%
 flops    15 x    32 x    37              7459200     100.0%      0.0%      0.0%
 flops    32 x    15 x    37              7459200     100.0%      0.0%      0.0%
 flops     8 x    13 x    19              7745920     100.0%      0.0%      0.0%
 flops    19 x    13 x     8              7745920     100.0%      0.0%      0.0%
 flops    37 x    15 x    37              8049720     100.0%      0.0%      0.0%
 flops     8 x    32 x    32              8257536     100.0%      0.0%      0.0%
 flops     2 x     2 x    32              8322048     100.0%      0.0%      0.0%
 flops     8 x    15 x     8             12042240     100.0%      0.0%      0.0%
 flops    36 x    32 x    38             12607488     100.0%      0.0%      0.0%
 flops    38 x    32 x    36             12607488     100.0%      0.0%      0.0%
 flops    19 x     2 x    32             12870144     100.0%      0.0%      0.0%
 flops     2 x    19 x    32             12870144     100.0%      0.0%      0.0%
 flops     8 x    13 x     8             13045760     100.0%      0.0%      0.0%
 flops    32 x    32 x    38             19144704     100.0%      0.0%      0.0%
 flops    38 x    32 x    32             19144704     100.0%      0.0%      0.0%
 flops     8 x     2 x    32             21676032     100.0%      0.0%      0.0%
 flops     2 x     8 x    32             21676032     100.0%      0.0%      0.0%
 flops    37 x    32 x    38             22675968     100.0%      0.0%      0.0%
 flops    38 x    32 x    37             22675968     100.0%      0.0%      0.0%
 flops    19 x    19 x    32             23288832     100.0%      0.0%      0.0%
 flops    32 x    32 x    32             24772608     100.0%      0.0%      0.0%
 flops     8 x    19 x    32             34320384     100.0%      0.0%      0.0%
 flops    19 x     8 x    32             34320384     100.0%      0.0%      0.0%
 flops     2 x    32 x     2             36126720     100.0%      0.0%      0.0%
 flops    36 x    32 x    36             47775744     100.0%      0.0%      0.0%
 flops    19 x    32 x     2             57200640     100.0%      0.0%      0.0%
 flops     2 x    32 x    19             57200640     100.0%      0.0%      0.0%
 flops     8 x     8 x    32             59867136     100.0%      0.0%      0.0%
 flops    32 x    32 x    36             72548352     100.0%      0.0%      0.0%
 flops    36 x    32 x    32             72548352     100.0%      0.0%      0.0%
 flops    37 x    32 x    36             85929984     100.0%      0.0%      0.0%
 flops    36 x    32 x    37             85929984     100.0%      0.0%      0.0%
 flops    19 x    32 x    19             90567680     100.0%      0.0%      0.0%
 flops     8 x    32 x     2             96337920     100.0%      0.0%      0.0%
 flops     2 x    32 x     8             96337920     100.0%      0.0%      0.0%
 flops    32 x    32 x    37            130486272     100.0%      0.0%      0.0%
 flops    37 x    32 x    32            130486272     100.0%      0.0%      0.0%
 flops    19 x    32 x     8            152535040     100.0%      0.0%      0.0%
 flops     8 x    32 x    19            152535040     100.0%      0.0%      0.0%
 flops    37 x    32 x    37            154554624     100.0%      0.0%      0.0%
 flops     8 x    32 x     8            256901120     100.0%      0.0%      0.0%
 flops inhomo. stacks                           0       0.0%      0.0%      0.0%
 flops total                         2.420285E+09     100.0%      0.0%      0.0%
 flops max/rank                     46.430240E+06     100.0%      0.0%      0.0%
 matmuls inhomo. stacks                         0       0.0%      0.0%      0.0%
 matmuls total                             730670     100.0%      0.0%      0.0%
 number of processed stacks                147006     100.0%      0.0%      0.0%
 average stack size                                     5.0       0.0       0.0
 marketing flops                     2.821670E+09
 -------------------------------------------------------------------------------
 # multiplications                             70
 max memory usage/rank             996.585472E+06
 # max total images/rank                        1
 # max 3D layers                                1
 # MPI messages exchanged                  221760
 MPI messages size (bytes):
  total size                       992.586112E+06
  min size                           0.000000E+00
  max size                          11.552000E+03
  average size                       4.475947E+03
 MPI breakdown and total messages size (bytes):
             size <=      128              114224                        0
       128 < size <=     8192               17776                 90610608
      8192 < size <=    32768               89760                901975536
     32768 < size <=   131072                   0                        0
    131072 < size <=  4194304                   0                        0
   4194304 < size <= 16777216                   0                        0
  16777216 < size                               0                        0
 -------------------------------------------------------------------------------

 MEMORY| Estimated peak process memory [MiB]                                1066

 -------------------------------------------------------------------------------
 -                                                                             -
 -                         MESSAGE PASSING PERFORMANCE                         -
 -                                                                             -
 -------------------------------------------------------------------------------

 ROUTINE             CALLS      AVE VOLUME [Bytes]
 MP_Group               51
 MP_Bcast              937                 590440.
 MP_Allreduce         1116                  12941.
 MP_Sync               220
 MP_Alltoall          1186                5363108.
 MP_ISendRecv        25454                  31493.
 MP_Wait             35662
 MP_comm_split           1
 MP_ISend             6284                 124221.
 MP_IRecv             6176                 124491.
 MP_Recv                44                  47628.
 MP_Memory            2580
 -------------------------------------------------------------------------------


 -------------------------------------------------------------------------------
 -                                                                             -
 -                           R E F E R E N C E S                               -
 -                                                                             -
 -------------------------------------------------------------------------------
 
 CP2K version 6.1, the CP2K developers group (2018).
 CP2K is freely available from https://www.cp2k.org/ .

 Schuett, Ole; Messmer, Peter; Hutter, Juerg; VandeVondele, Joost. 
 Electronic Structure Calculations on Graphics Processing Units, John Wiley & Sons, Ltd, 173-190 (2016). 
 GPU-Accelerated Sparse Matrix-Matrix Multiplication for Linear Scaling Density Functional Theory.
 http://dx.doi.org/10.1002/9781118670712.ch8


 Borstnik, U; VandeVondele, J; Weber, V; Hutter, J. 
 PARALLEL COMPUTING, 40 (5-6), 47-58 (2014). 
 Sparse matrix multiplication: The distributed block-compressed sparse
 row library.
 http://dx.doi.org/10.1016/j.parco.2014.03.012


 Hutter, J; Iannuzzi, M; Schiffmann, F; VandeVondele, J. 
 WILEY INTERDISCIPLINARY REVIEWS-COMPUTATIONAL MOLECULAR SCIENCE, 4 (1), 15-25 (2014). 
 CP2K: atomistic simulations of condensed matter systems.
 http://dx.doi.org/10.1002/wcms.1159


 Guidon, M; Hutter, J; VandeVondele, J. 
 JOURNAL OF CHEMICAL THEORY AND COMPUTATION, 5 (11), 3010-3021 (2009). 
 Robust Periodic Hartree-Fock Exchange for Large-Scale Simulations Using
 Gaussian Basis Sets.
 http://dx.doi.org/10.1021/ct900494g


 Guidon, M; Schiffmann, F; Hutter, J; VandeVondele, J. 
 JOURNAL OF CHEMICAL PHYSICS, 128 (21), 214104 (2008). 
 Ab initio molecular dynamics using hybrid density functionals.
 http://dx.doi.org/10.1063/1.2931945


 Krack, M. 
 THEORETICAL CHEMISTRY ACCOUNTS, 114 (1-3), 145-152 (2005). 
 Pseudopotentials for H to Kr optimized for gradient-corrected
 exchange-correlation functionals.
 http://dx.doi.org/10.1007/s00214-005-0655-y


 VandeVondele, J; Krack, M; Mohamed, F; Parrinello, M; Chassaing, T;
 Hutter, J. COMPUTER PHYSICS COMMUNICATIONS, 167 (2), 103-128 (2005). 
 QUICKSTEP: Fast and accurate density functional calculations using a
 mixed Gaussian and plane waves approach.
 http://dx.doi.org/10.1016/j.cpc.2004.12.014


 Frigo, M; Johnson, SG. 
 PROCEEDINGS OF THE IEEE, 93 (2), 216-231 (2005). 
 The design and implementation of FFTW3.
 http://dx.doi.org/10.1109/JPROC.2004.840301


 VandeVondele, J; Hutter, J. 
 JOURNAL OF CHEMICAL PHYSICS, 118 (10), 4365-4369 (2003). 
 An efficient orbital transformation method for electronic structure
 calculations.
 http://dx.doi.org/10.1063/1.1543154


 Hartwigsen, C; Goedecker, S; Hutter, J. 
 PHYSICAL REVIEW B, 58 (7), 3641-3662 (1998). 
 Relativistic separable dual-space Gaussian pseudopotentials from H to Rn.
 http://dx.doi.org/10.1103/PhysRevB.58.3641


 Dudarev, SL; Botton, GA; Savrasov, SY; Humphreys, CJ; Sutton, AP. 
 PHYSICAL REVIEW B, 57 (3), 1505-1509 (1998). 
 Electron-energy-loss spectra and the structural stability of
 nickel oxide: An LSDA+U study.
 http://dx.doi.org/10.1103/PhysRevB.57.1505


 Lippert, G; Hutter, J; Parrinello, M. 
 MOLECULAR PHYSICS, 92 (3), 477-487 (1997). 
 A hybrid Gaussian and plane wave density functional scheme.
 http://dx.doi.org/10.1080/002689797170220


 Dudarev, SL; Manh, DN; Sutton, AP. 
 PHILOSOPHICAL MAGAZINE B, 75 (5), 613-628 (1997). 
 Effect of Mott-Hubbard correlations on the electronic
 structure and structural stability of uranium dioxide.
 http://dx.doi.org/10.1080/13642819708202343


 Goedecker, S; Teter, M; Hutter, J. 
 PHYSICAL REVIEW B, 54 (3), 1703-1710 (1996). 
 Separable dual-space Gaussian pseudopotentials.
 http://dx.doi.org/10.1103/PhysRevB.54.1703


 BECKE, AD. PHYSICAL REVIEW A, 38 (6), 3098-3100 (1988). 
 DENSITY-FUNCTIONAL EXCHANGE-ENERGY APPROXIMATION WITH CORRECT
 ASYMPTOTIC-BEHAVIOR.
 http://dx.doi.org/10.1103/PhysRevA.38.3098


 LEE, CT; YANG, WT; PARR, RG. 
 PHYSICAL REVIEW B, 37 (2), 785-789 (1988). 
 DEVELOPMENT OF THE COLLE-SALVETTI CORRELATION-ENERGY FORMULA INTO A
 FUNCTIONAL OF THE ELECTRON-DENSITY.
 http://dx.doi.org/10.1103/PhysRevB.37.785


 -------------------------------------------------------------------------------
 -                                                                             -
 -                                T I M I N G                                  -
 -                                                                             -
 -------------------------------------------------------------------------------
 SUBROUTINE                       CALLS  ASD         SELF TIME        TOTAL TIME
                                MAXIMUM       AVERAGE  MAXIMUM  AVERAGE  MAXIMUM
 CP2K                                 1  1.0    3.502    5.076   65.999   66.000
 qs_ks_update_qs_env                  8  3.5    0.000    0.000   51.531   52.158
 rebuild_ks_matrix                    6  4.0    0.000    0.000   51.530   52.157
 qs_ks_build_kohn_sham_matrix         6  5.0    0.815    1.442   51.530   52.157
 hfx_ks_matrix                        4  5.0    0.434    0.980   45.025   45.025
 integrate_four_center                4  6.0    0.008    0.484   44.591   44.996
 integrate_four_center_main           4  7.0    0.001    0.001   39.700   42.430
 integrate_four_center_bin          256  8.0   39.699   42.429   39.699   42.429
 qs_energies                          2  2.0    0.000    0.000   11.796   12.822
 pw_transfer                        276  7.6    0.011    0.012    8.283    8.487
 scf_env_do_scf                       2  3.0    0.000    0.000    8.471    8.471
 fft_wrap_pw1pw2                    248  8.7    0.001    0.003    8.157    8.361
 fft_wrap_pw1pw2_330                 68 10.4    0.361    0.408    7.532    7.729
 fft3d_ps                           248 10.7    2.950    3.537    6.862    7.055
 init_scf_loop                        2  4.0    0.000    0.000    6.737    6.737
 qs_rho_update_rho                    8  3.5    0.000    0.000    6.619    6.620
 calculate_rho_elec                  16  4.5    0.159    0.464    6.619    6.619
 density_rs2pw                       16  5.5    0.001    0.001    5.860    6.127
 mp_sync                            220 11.1    2.886    5.817    2.886    5.817
 rs_pw_transfer                     208  7.4    0.002    0.002    3.223    4.327
 qs_vxc_create                        6  6.0    0.000    0.000    3.763    3.777
 xc_vxc_pw_create                     2  9.0    0.058    0.072    3.763    3.777
 mp_alltoall_z22v                   248 12.7    3.171    3.445    3.171    3.445
 rs_pw_transfer_RS2PW_330            20  7.5    0.571    0.686    1.499    2.603
 yz_to_x                             50 11.7    0.249    0.350    2.172    2.355
 mp_waitany                        2736  9.3    1.140    2.313    1.140    2.313
 cp_fm_transpose                      4  2.0    0.379    2.254    0.379    2.254
 mp_sum_iv                           82  7.5    1.051    2.216    1.051    2.216
 qs_energies_init_hamiltonians        2  3.0    0.000    0.000    0.976    2.001
 qs_env_update_s_mstruct              2  4.0    0.000    0.000    0.968    1.992
 calculate_rho_core                   2  5.0    0.007    0.011    0.953    1.978
 dbcsr_complete_redistribute         69  8.0    0.003    0.003    0.488    1.944
 init_scf_run                         2  3.0    0.000    0.000    1.927    1.927
 scf_env_initial_rho_setup            2  4.0    0.000    0.000    1.927    1.927
 copy_fm_to_dbcsr                    40  6.7    0.000    0.000    0.450    1.907
 mp_alltoall_i22                     98  9.1    0.446    1.901    0.446    1.901
 scf_env_do_scf_inner_loop            2  4.0    0.000    0.000    1.711    1.729
 x_to_yz                             38 12.8    0.353    0.456    1.589    1.618
 xc_rho_set_and_dset_create           2 10.0    0.080    0.100    1.550    1.592
 prepare_preconditioner               2  5.0    0.000    0.000    0.648    1.445
 make_preconditioner                  2  6.0    0.000    0.000    0.648    1.445
 make_full_inverse_cholesky           2  7.0    0.000    0.000    0.645    1.443
 transfer_dbcsr_to_fm                 2  8.0    0.000    0.000    0.634    1.432
 -------------------------------------------------------------------------------

 The number of warnings for this run is : 4
 
 -------------------------------------------------------------------------------
  **** **** ******  **  PROGRAM ENDED AT                 2019-08-07 09:03:42.341
 ***** ** ***  *** **   PROGRAM RAN ON            cpn-u27-03.cbls.ccr.buffalo.ed
 **    ****   ******    PROGRAM RAN BY                                  pavankum
 ***** **    ** ** **   PROGRAM PROCESS ID                                 46280
  **** **  *******  **  PROGRAM STOPPED IN /projects/academic/mdupuis2/pavan/VAB
                                           _calculation/results_for_paper/3.1D_F
                                           e_7units/blyp_plusU9/mixed
