 DBCSR| Multiplication driver                                               BLAS
 DBCSR| Multrec recursion limit                                              512
 DBCSR| Multiplication stack size                                           1000
 DBCSR| Maximum elements for images                                    UNLIMITED
 DBCSR| Multiplicative factor virtual images                                   1
 DBCSR| Multiplication size stacks                                             3
 DBCSR| Number of 3D layers                                               SINGLE
 DBCSR| Use MPI memory allocation                                              T
 DBCSR| Use RMA algorithm                                                      F
 DBCSR| Use Communication thread                                               T
 DBCSR| Communication thread load                                             87


  **** **** ******  **  PROGRAM STARTED AT               2019-08-02 13:02:07.330
 ***** ** ***  *** **   PROGRAM STARTED ON        cpn-p28-06.cbls.ccr.buffalo.ed
 **    ****   ******    PROGRAM STARTED BY                              pavankum
 ***** **    ** ** **   PROGRAM PROCESS ID                                 18665
  **** **  *******  **  PROGRAM STARTED IN /projects/academic/mdupuis2/pavan/VAB
                                           _calculation/results_for_paper/7.TiO2
                                           _pbe_plus_U10/point_0.5_from1

 CP2K| version string:                                          CP2K version 6.1
 CP2K| source code revision number:                                    svn:18464
 CP2K| cp2kflags: libint fftw3 libxc parallel mpi3 scalapack libderiv_max_am1=5 
 CP2K|            libint_max_am=6
 CP2K| is freely available from                            https://www.cp2k.org/
 CP2K| Program compiled at                          Fri Nov 30 14:17:09 EST 2018
 CP2K| Program compiled on                       srv-p22-12.cbls.ccr.buffalo.edu
 CP2K| Program compiled for                                                local
 CP2K| Data directory path    /projects/academic/mdupuis2/pavan/cp2k/cp2k-6.1/da
 CP2K| Input file name                                                 input.inp

 GLOBAL| Force Environment number                                              1
 GLOBAL| Basis set file name            /projects/academic/mdupuis2/pavan/BASIS_
 GLOBAL| Potential file name            /projects/academic/mdupuis2/pavan/POTENT
 GLOBAL| MM Potential file name                                     MM_POTENTIAL
 GLOBAL| Coordinate file name                           ./intermediate_point.xyz
 GLOBAL| Method name                                                        CP2K
 GLOBAL| Project name                                                    p_tio2_
 GLOBAL| Preferred FFT library                                             FFTW3
 GLOBAL| Preferred diagonalization lib.                                       SL
 GLOBAL| Run type                                                         ENERGY
 GLOBAL| All-to-all communication in single precision                          F
 GLOBAL| FFTs using library dependent lengths                                  T
 GLOBAL| Global print level                                               MEDIUM
 GLOBAL| Total number of message passing processes                            40
 GLOBAL| Number of threads for this process                                    1
 GLOBAL| This output is from process                                           0
 GLOBAL| CPU model name :  Intel(R) Xeon(R) CPU E5-2650 v4 @ 2.20GHz

 MEMORY| system memory details [Kb]
 MEMORY|                        rank 0           min           max       average
 MEMORY| MemTotal            131746140     131740876     131746140     131743508
 MEMORY| MemFree             119148024     119148024     124770388     121959206
 MEMORY| Buffers                496660        495908        496660        496284
 MEMORY| Cached                7664632       2222956       7664632       4943794
 MEMORY| Slab                   350376        350376        413252        381814
 MEMORY| SReclaimable           235704        233928        235704        234816
 MEMORY| MemLikelyFree       127545020     127545020     127723180     127634100


 *** Fundamental physical constants (SI units) ***

 *** Literature: B. J. Mohr and B. N. Taylor,
 ***             CODATA recommended values of the fundamental physical
 ***             constants: 2006, Web Version 5.1
 ***             http://physics.nist.gov/constants

 Speed of light in vacuum [m/s]                             2.99792458000000E+08
 Magnetic constant or permeability of vacuum [N/A**2]       1.25663706143592E-06
 Electric constant or permittivity of vacuum [F/m]          8.85418781762039E-12
 Planck constant (h) [J*s]                                  6.62606896000000E-34
 Planck constant (h-bar) [J*s]                              1.05457162825177E-34
 Elementary charge [C]                                      1.60217648700000E-19
 Electron mass [kg]                                         9.10938215000000E-31
 Electron g factor [ ]                                     -2.00231930436220E+00
 Proton mass [kg]                                           1.67262163700000E-27
 Fine-structure constant                                    7.29735253760000E-03
 Rydberg constant [1/m]                                     1.09737315685270E+07
 Avogadro constant [1/mol]                                  6.02214179000000E+23
 Boltzmann constant [J/K]                                   1.38065040000000E-23
 Atomic mass unit [kg]                                      1.66053878200000E-27
 Bohr radius [m]                                            5.29177208590000E-11

 *** Conversion factors ***

 [u] -> [a.u.]                                              1.82288848426455E+03
 [Angstrom] -> [Bohr] = [a.u.]                              1.88972613288564E+00
 [a.u.] = [Bohr] -> [Angstrom]                              5.29177208590000E-01
 [a.u.] -> [s]                                              2.41888432650478E-17
 [a.u.] -> [fs]                                             2.41888432650478E-02
 [a.u.] -> [J]                                              4.35974393937059E-18
 [a.u.] -> [N]                                              8.23872205491840E-08
 [a.u.] -> [K]                                              3.15774647902944E+05
 [a.u.] -> [kJ/mol]                                         2.62549961709828E+03
 [a.u.] -> [kcal/mol]                                       6.27509468713739E+02
 [a.u.] -> [Pa]                                             2.94210107994716E+13
 [a.u.] -> [bar]                                            2.94210107994716E+08
 [a.u.] -> [atm]                                            2.90362800883016E+08
 [a.u.] -> [eV]                                             2.72113838565563E+01
 [a.u.] -> [Hz]                                             6.57968392072181E+15
 [a.u.] -> [1/cm] (wave numbers)                            2.19474631370540E+05
 [a.u./Bohr**2] -> [1/cm]                                   5.14048714338585E+03
 

 CELL_TOP| Volume [angstrom^3]:                                         2867.349
 CELL_TOP| Vector a [angstrom    13.869     0.000     0.000    |a| =      13.869
 CELL_TOP| Vector b [angstrom     0.000    13.869     0.000    |b| =      13.869
 CELL_TOP| Vector c [angstrom     0.000     0.000    14.907    |c| =      14.907
 CELL_TOP| Angle (b,c), alpha [degree]:                                   90.000
 CELL_TOP| Angle (a,c), beta  [degree]:                                   90.000
 CELL_TOP| Angle (a,b), gamma [degree]:                                   90.000
 CELL_TOP| Numerically orthorhombic:                                         YES

 CELL| Volume [angstrom^3]:                                             2867.349
 CELL| Vector a [angstrom]:      13.869     0.000     0.000    |a| =      13.869
 CELL| Vector b [angstrom]:       0.000    13.869     0.000    |b| =      13.869
 CELL| Vector c [angstrom]:       0.000     0.000    14.907    |c| =      14.907
 CELL| Angle (b,c), alpha [degree]:                                       90.000
 CELL| Angle (a,c), beta  [degree]:                                       90.000
 CELL| Angle (a,b), gamma [degree]:                                       90.000
 CELL| Numerically orthorhombic:                                             YES

 CELL_REF| Volume [angstrom^3]:                                         2867.349
 CELL_REF| Vector a [angstrom    13.869     0.000     0.000    |a| =      13.869
 CELL_REF| Vector b [angstrom     0.000    13.869     0.000    |b| =      13.869
 CELL_REF| Vector c [angstrom     0.000     0.000    14.907    |c| =      14.907
 CELL_REF| Angle (b,c), alpha [degree]:                                   90.000
 CELL_REF| Angle (a,c), beta  [degree]:                                   90.000
 CELL_REF| Angle (a,b), gamma [degree]:                                   90.000
 CELL_REF| Numerically orthorhombic:                                         YES

 *******************************************************************************
 *******************************************************************************
 **                                                                           **
 **     #####                         ##              ##                      **
 **    ##   ##            ##          ##              ##                      **
 **   ##     ##                       ##            ######                    **
 **   ##     ##  ##   ##  ##   #####  ##  ##   ####   ##    #####    #####    **
 **   ##     ##  ##   ##  ##  ##      ## ##   ##      ##   ##   ##  ##   ##   **
 **   ##  ## ##  ##   ##  ##  ##      ####     ###    ##   ######   ######    **
 **    ##  ###   ##   ##  ##  ##      ## ##      ##   ##   ##       ##        **
 **     #######   #####   ##   #####  ##  ##  ####    ##    #####   ##        **
 **           ##                                                    ##        **
 **                                                                           **
 **                                                ... make the atoms dance   **
 **                                                                           **
 **            Copyright (C) by CP2K developers group (2000 - 2018)           **
 **                                                                           **
 *******************************************************************************

 DFT| Spin unrestricted (spin-polarized) Kohn-Sham calculation               UKS
 DFT| Multiplicity                                                             2
 DFT| Number of spin states                                                    2
 DFT| Charge                                                                  -1
 DFT| Self-interaction correction (SIC)                                       NO
 DFT| Cutoffs: density                                              1.000000E-10
 DFT|          gradient                                             1.000000E-10
 DFT|          tau                                                  1.000000E-10
 DFT|          cutoff_smoothing_range                               0.000000E+00
 DFT| XC density smoothing                                                  NONE
 DFT| XC derivatives                                                          PW

 DFT+U| Method                                                          MULLIKEN
 DFT+U| Check atomic kind information for details
 FUNCTIONAL| ROUTINE=NEW
 FUNCTIONAL| PBE:
 FUNCTIONAL| J.P.Perdew, K.Burke, M.Ernzerhof, Phys. Rev. Letter, vol. 77, n 18,
 FUNCTIONAL|  pp. 3865-3868, (1996){spin polarized}                             

 QS| Method:                                                                 GPW
 QS| Density plane wave grid type                        NON-SPHERICAL FULLSPACE
 QS| Number of grid levels:                                                   10
 QS| Density cutoff [a.u.]:                                                325.0
 QS| Multi grid cutoff [a.u.]: 1) grid level                               325.0
 QS|                           2) grid level                               108.3
 QS|                           3) grid level                                36.1
 QS|                           4) grid level                                12.0
 QS|                           5) grid level                                 4.0
 QS|                           6) grid level                                 1.3
 QS|                           7) grid level                                 0.4
 QS|                           8) grid level                                 0.1
 QS|                           9) grid level                                 0.0
 QS|                          10) grid level                                 0.0
 QS| Grid level progression factor:                                          3.0
 QS| Relative density cutoff [a.u.]:                                        30.0
 QS| Consistent realspace mapping and integration 
 QS| Interaction thresholds: eps_pgf_orb:                                1.0E-12
 QS|                         eps_filter_matrix:                          0.0E+00
 QS|                         eps_core_charge:                            1.0E-14
 QS|                         eps_rho_gspace:                             1.0E-12
 QS|                         eps_rho_rspace:                             1.0E-12
 QS|                         eps_gvg_rspace:                             1.0E-06
 QS|                         eps_ppl:                                    1.0E-02
 QS|                         eps_ppnl:                                   1.0E-08


 ATOMIC KIND INFORMATION

  1. Atomic kind: Ti                                    Number of atoms:      90

     Orbital Basis Set                                         SZV-MOLOPT-SR-GTH

       Number of orbital shell sets:                                           1
       Number of orbital shells:                                               4
       Number of primitive Cartesian functions:                                6
       Number of Cartesian basis functions:                                   11
       Number of spherical basis functions:                                   10
       Norm type:                                                              2

       Normalised Cartesian orbitals:

                        Set   Shell   Orbital            Exponent    Coefficient

                          1       1    2s                7.884570       0.015554
                                                         3.894698       0.963603
                                                         1.513589      -0.631435
                                                         0.596768      -0.343022
                                                         0.222222      -0.006534
                                                         0.077078       0.007652

                          1       2    3s                7.884570      -0.009340
                                                         3.894698       0.212624
                                                         1.513589      -0.258368
                                                         0.596768      -0.226206
                                                         0.222222       0.039438
                                                         0.077078       0.107179

                          1       3    3px               7.884570      -2.034794
                                                         3.894698       0.782008
                                                         1.513589       1.253903
                                                         0.596768       0.347823
                                                         0.222222       0.016778
                                                         0.077078      -0.000433
                          1       3    3py               7.884570      -2.034794
                                                         3.894698       0.782008
                                                         1.513589       1.253903
                                                         0.596768       0.347823
                                                         0.222222       0.016778
                                                         0.077078      -0.000433
                          1       3    3pz               7.884570      -2.034794
                                                         3.894698       0.782008
                                                         1.513589       1.253903
                                                         0.596768       0.347823
                                                         0.222222       0.016778
                                                         0.077078      -0.000433

                          1       4    4dx2              7.884570       3.047350
                                                         3.894698       3.289529
                                                         1.513589       1.060616
                                                         0.596768       0.249930
                                                         0.222222       0.038806
                                                         0.077078       0.002319
                          1       4    4dxy              7.884570       5.278165
                                                         3.894698       5.697631
                                                         1.513589       1.837041
                                                         0.596768       0.432892
                                                         0.222222       0.067214
                                                         0.077078       0.004017
                          1       4    4dxz              7.884570       5.278165
                                                         3.894698       5.697631
                                                         1.513589       1.837041
                                                         0.596768       0.432892
                                                         0.222222       0.067214
                                                         0.077078       0.004017
                          1       4    4dy2              7.884570       3.047350
                                                         3.894698       3.289529
                                                         1.513589       1.060616
                                                         0.596768       0.249930
                                                         0.222222       0.038806
                                                         0.077078       0.002319
                          1       4    4dyz              7.884570       5.278165
                                                         3.894698       5.697631
                                                         1.513589       1.837041
                                                         0.596768       0.432892
                                                         0.222222       0.067214
                                                         0.077078       0.004017
                          1       4    4dz2              7.884570       3.047350
                                                         3.894698       3.289529
                                                         1.513589       1.060616
                                                         0.596768       0.249930
                                                         0.222222       0.038806
                                                         0.077078       0.002319

     GTH Potential information for                                   GTH-PBE-q12

       Description:                       Goedecker-Teter-Hutter pseudopotential
                                           Goedecker et al., PRB 54, 1703 (1996)
                                          Hartwigsen et al., PRB 58, 3641 (1998)
                                                      Krack, TCA 114, 145 (2005)

       Gaussian exponent of the core charge distribution:               3.462604
       Electronic configuration (s p d ...):                           4   6   2

       Parameters of the local part of the GTH pseudopotential:

                          rloc        C1          C2          C3          C4
                        0.380000    8.711442   -0.700287

       Parameters of the non-local part of the GTH pseudopotential:

                   l      r(l)      h(i,j,l)

                   0    0.337771    2.575264    3.692971
                                    3.692971   -4.767605
                   1    0.242531   -4.630541    8.870875
                                    8.870875  -10.496161
                   2    0.243317   -9.406653

     A DFT+U correction is applied to atoms of this atomic kind:
       Angular quantum momentum number L:                                      2
       U(eff) = (U - J) value in [eV]:                                     9.987

  2. Atomic kind: O                                     Number of atoms:     180

     Orbital Basis Set                                            SZV-MOLOPT-GTH

       Number of orbital shell sets:                                           1
       Number of orbital shells:                                               2
       Number of primitive Cartesian functions:                                7
       Number of Cartesian basis functions:                                    4
       Number of spherical basis functions:                                    4
       Norm type:                                                              2

       Normalised Cartesian orbitals:

                        Set   Shell   Orbital            Exponent    Coefficient

                          1       1    2s               12.015955      -0.284499
                                                         5.108150      -0.322498
                                                         2.048398       0.148191
                                                         0.832382       0.295475
                                                         0.352316       0.150829
                                                         0.142977       0.015788
                                                         0.046761      -0.000019

                          1       2    3px              12.015955       1.192141
                                                         5.108150       1.354170
                                                         2.048398       0.897267
                                                         0.832382       0.408839
                                                         0.352316       0.116648
                                                         0.142977       0.022184
                                                         0.046761       0.000308
                          1       2    3py              12.015955       1.192141
                                                         5.108150       1.354170
                                                         2.048398       0.897267
                                                         0.832382       0.408839
                                                         0.352316       0.116648
                                                         0.142977       0.022184
                                                         0.046761       0.000308
                          1       2    3pz              12.015955       1.192141
                                                         5.108150       1.354170
                                                         2.048398       0.897267
                                                         0.832382       0.408839
                                                         0.352316       0.116648
                                                         0.142977       0.022184
                                                         0.046761       0.000308

     GTH Potential information for                                    GTH-PBE-q6

       Description:                       Goedecker-Teter-Hutter pseudopotential
                                           Goedecker et al., PRB 54, 1703 (1996)
                                          Hartwigsen et al., PRB 58, 3641 (1998)
                                                      Krack, TCA 114, 145 (2005)

       Gaussian exponent of the core charge distribution:               8.360253
       Electronic configuration (s p d ...):                               2   4

       Parameters of the local part of the GTH pseudopotential:

                          rloc        C1          C2          C3          C4
                        0.244554  -16.667215    2.487311

       Parameters of the non-local part of the GTH pseudopotential:

                   l      r(l)      h(i,j,l)

                   0    0.220956   18.337458
                   1    0.211332


 MOLECULE KIND INFORMATION


 All atoms are their own molecule, skipping detailed information


 TOTAL NUMBERS AND MAXIMUM NUMBERS

  Total number of            - Atomic kinds:                                   2
                             - Atoms:                                        270
                             - Shell sets:                                   270
                             - Shells:                                       720
                             - Primitive Cartesian functions:               1800
                             - Cartesian basis functions:                   1710
                             - Spherical basis functions:                   1620

  Maximum angular momentum of- Orbital basis functions:                        2
                             - Local part of the GTH pseudopotential:          2
                             - Non-local part of the GTH pseudopotential:      3


 MODULE QUICKSTEP:  ATOMIC COORDINATES IN angstrom

  Atom  Kind  Element       X           Y           Z          Z(eff)       Mass

       1     1 Ti  22   -0.000060    0.000968    0.001426     12.00      47.8670
       2     1 Ti  22    2.313579    2.309302    1.489123     12.00      47.8670
       3     1 Ti  22    4.632169    0.009166    0.000658     12.00      47.8670
       4     1 Ti  22    6.934565    2.311560    1.487117     12.00      47.8670
       5     1 Ti  22    9.244929    0.001106   -0.000454     12.00      47.8670
       6     1 Ti  22   11.555432    2.313644    1.489100     12.00      47.8670
       7     1 Ti  22    0.000361    4.622290    0.001401     12.00      47.8670
       8     1 Ti  22    2.312334    6.933817    1.488716     12.00      47.8670
       9     1 Ti  22    4.624110    4.621925   -0.000454     12.00      47.8670
      10     1 Ti  22    6.936646    6.932429    1.489100     12.00      47.8670
      11     1 Ti  22    9.237006    4.614004    0.000715     12.00      47.8670
      12     1 Ti  22   11.554702    6.931697    1.489025     12.00      47.8670
      13     1 Ti  22    0.000078    9.246075    0.000547     12.00      47.8670
      14     1 Ti  22    2.314421   11.560420    1.489020     12.00      47.8670
      15     1 Ti  22    4.623969    9.245938    0.001427     12.00      47.8670
      16     1 Ti  22    6.932305   11.559577    1.489123     12.00      47.8670
      17     1 Ti  22    9.245295    9.246358    0.001403     12.00      47.8670
      18     1 Ti  22   11.556819   11.558331    1.488716     12.00      47.8670
      19     1 Ti  22   -0.000206    0.000841    2.977158     12.00      47.8670
      20     1 Ti  22    2.314836    2.307797    4.466821     12.00      47.8670
      21     1 Ti  22    4.631908    0.008904    2.977829     12.00      47.8670
      22     1 Ti  22    6.934624    2.311615    4.489145     12.00      47.8670
      23     1 Ti  22    9.245312    0.000893    2.979310     12.00      47.8670
      24     1 Ti  22   11.554788    2.315793    4.466717     12.00      47.8670
      25     1 Ti  22    0.000545    4.622446    2.977119     12.00      47.8670
      26     1 Ti  22    2.313238    6.933123    4.466330     12.00      47.8670
      27     1 Ti  22    4.623897    4.622308    2.979310     12.00      47.8670
      28     1 Ti  22    6.938796    6.931788    4.466716     12.00      47.8670
      29     1 Ti  22    9.237275    4.614273    2.977871     12.00      47.8670
      30     1 Ti  22   11.554376    6.931361    4.468999     12.00      47.8670
      31     1 Ti  22    0.000089    9.246087    2.977641     12.00      47.8670
      32     1 Ti  22    2.314808   11.560807    4.469007     12.00      47.8670
      33     1 Ti  22    4.623841    9.245791    2.977158     12.00      47.8670
      34     1 Ti  22    6.930809   11.560818    4.466820     12.00      47.8670
      35     1 Ti  22    9.245451    9.246542    2.977118     12.00      47.8670
      36     1 Ti  22   11.556131   11.559235    4.466329     12.00      47.8670
      37     1 Ti  22   -0.000534    0.001278    5.958307     12.00      47.8670
      38     1 Ti  22    2.313642    2.309788    7.452876     12.00      47.8670
      39     1 Ti  22    4.634594    0.011568    5.958702     12.00      47.8670
      40     1 Ti  22    6.934814    2.311800    7.466469     12.00      47.8670
      41     1 Ti  22    9.244850    0.002834    5.963423     12.00      47.8670
      42     1 Ti  22   11.557154    2.315034    7.452849     12.00      47.8670
      43     1 Ti  22    0.001907    4.623110    5.958374     12.00      47.8670
      44     1 Ti  22    2.313716    6.934188    7.452871     12.00      47.8670
      45     1 Ti  22    4.625841    4.621843    5.963422     12.00      47.8670
      46     1 Ti  22    6.938030    6.934152    7.452848     12.00      47.8670
      47     1 Ti  22    9.234784    4.611784    5.958705     12.00      47.8670
      48     1 Ti  22   11.551721    6.928692    7.454582     12.00      47.8670
      49     1 Ti  22    0.000133    9.246127    5.959602     12.00      47.8670
      50     1 Ti  22    2.317548   11.563547    7.454582     12.00      47.8670
      51     1 Ti  22    4.624282    9.245468    5.958306     12.00      47.8670
      52     1 Ti  22    6.932830   11.559611    7.452874     12.00      47.8670
      53     1 Ti  22    9.246128    9.247885    5.958372     12.00      47.8670
      54     1 Ti  22   11.557188   11.559699    7.452870     12.00      47.8670
      55     1 Ti  22    0.000422   -0.000410    8.947958     12.00      47.8670
      56     1 Ti  22    2.312658    2.309680   10.441103     12.00      47.8670
      57     1 Ti  22    4.637049    0.014008    8.947303     12.00      47.8670
      58     1 Ti  22    6.934792    2.311778   10.418505     12.00      47.8670
      59     1 Ti  22    9.242448    0.005891    8.947239     12.00      47.8670
      60     1 Ti  22   11.557862    2.314851   10.441172     12.00      47.8670
      61     1 Ti  22    0.001641    4.625469    8.947966     12.00      47.8670
      62     1 Ti  22    2.313193    6.934200   10.441251     12.00      47.8670
      63     1 Ti  22    4.628898    4.619437    8.947240     12.00      47.8670
      64     1 Ti  22    6.937849    6.934860   10.441172     12.00      47.8670
      65     1 Ti  22    9.232466    4.609467    8.947292     12.00      47.8670
      66     1 Ti  22   11.552235    6.929207   10.439844     12.00      47.8670
      67     1 Ti  22    0.000135    9.246127    8.947950     12.00      47.8670
      68     1 Ti  22    2.317017   11.563018   10.439842     12.00      47.8670
      69     1 Ti  22    4.622598    9.246430    8.947957     12.00      47.8670
      70     1 Ti  22    6.932715   11.558628   10.441103     12.00      47.8670
      71     1 Ti  22    9.248493    9.247605    8.947965     12.00      47.8670
      72     1 Ti  22   11.557205   11.559183   10.441252     12.00      47.8670
      73     1 Ti  22   -0.000622    0.000502   11.932430     12.00      47.8670
      74     1 Ti  22    2.314580    2.308264   13.420553     12.00      47.8670
      75     1 Ti  22    4.634664    0.011644   11.931095     12.00      47.8670
      76     1 Ti  22    6.934641    2.311632   13.392593     12.00      47.8670
      77     1 Ti  22    9.244782    0.002429   11.926432     12.00      47.8670
      78     1 Ti  22   11.554795    2.315089   13.420672     12.00      47.8670
      79     1 Ti  22    0.001771    4.623632   11.932412     12.00      47.8670
      80     1 Ti  22    2.313063    6.933379   13.420836     12.00      47.8670
      81     1 Ti  22    4.625434    4.621774   11.926433     12.00      47.8670
      82     1 Ti  22    6.938091    6.931793   13.420674     12.00      47.8670
      83     1 Ti  22    9.234699    4.611697   11.931123     12.00      47.8670
      84     1 Ti  22   11.553994    6.930980   13.418566     12.00      47.8670
      85     1 Ti  22    0.000105    9.246100   11.930896     12.00      47.8670
      86     1 Ti  22    2.315151   11.561151   13.418549     12.00      47.8670
      87     1 Ti  22    4.623503    9.245377   11.932430     12.00      47.8670
      88     1 Ti  22    6.931273   11.560568   13.420555     12.00      47.8670
      89     1 Ti  22    9.246648    9.247754   11.932415     12.00      47.8670
      90     1 Ti  22   11.556385   11.559060   13.420836     12.00      47.8670
      91     2 O    8    1.408145    1.409930   -0.000089      6.00      15.9994
      92     2 O    8    3.212695    3.213218   -0.000533      6.00      15.9994
      93     2 O    8    0.902563    3.720985    1.486310      6.00      15.9994
      94     2 O    8    3.718985    0.902586    1.485976      6.00      15.9994
      95     2 O    8    6.030160    1.407159    0.003985      6.00      15.9994
      96     2 O    8    7.838946    3.215944    0.004002      6.00      15.9994
      97     2 O    8    5.522840    3.723211    1.485952      6.00      15.9994
      98     2 O    8    8.346212    0.899839    1.485952      6.00      15.9994
      99     2 O    8   10.656377    1.409856   -0.000552      6.00      15.9994
     100     2 O    8   12.460948    3.213130   -0.000073      6.00      15.9994
     101     2 O    8   10.150078    3.720479    1.485975      6.00      15.9994
     102     2 O    8   12.966506    0.902085    1.486283      6.00      15.9994
     103     2 O    8    1.409551    6.032277   -0.000454      6.00      15.9994
     104     2 O    8    3.213791    7.836528   -0.000436      6.00      15.9994
     105     2 O    8    0.902716    8.343323    1.486318      6.00      15.9994
     106     2 O    8    3.719727    5.526337    1.485953      6.00      15.9994
     107     2 O    8    6.032856    6.033375   -0.000552      6.00      15.9994
     108     2 O    8    7.836131    7.837947   -0.000073      6.00      15.9994
     109     2 O    8    5.525085    8.343504    1.486283      6.00      15.9994
     110     2 O    8    8.343479    5.527077    1.485975      6.00      15.9994
     111     2 O    8   10.656386    6.033384    0.000170      6.00      15.9994
     112     2 O    8   12.460153    7.837151   -0.000437      6.00      15.9994
     113     2 O    8   10.146749    8.345197    1.486313      6.00      15.9994
     114     2 O    8   12.968199    5.523748    1.486313      6.00      15.9994
     115     2 O    8    1.408888   10.654887   -0.000444      6.00      15.9994
     116     2 O    8    3.212676   12.458676    0.000155      6.00      15.9994
     117     2 O    8    0.900870   12.968317    1.486292      6.00      15.9994
     118     2 O    8    3.722317   10.146870    1.486292      6.00      15.9994
     119     2 O    8    6.032932   10.654143   -0.000089      6.00      15.9994
     120     2 O    8    7.836220   12.458693   -0.000534      6.00      15.9994
     121     2 O    8    5.525587   12.964984    1.485976      6.00      15.9994
     122     2 O    8    8.343986   10.148562    1.486310      6.00      15.9994
     123     2 O    8   10.655278   10.655550   -0.000454      6.00      15.9994
     124     2 O    8   12.459529   12.459790   -0.000436      6.00      15.9994
     125     2 O    8   10.149338   12.965726    1.485953      6.00      15.9994
     126     2 O    8   12.966324   10.148715    1.486318      6.00      15.9994
     127     2 O    8    1.407973    1.410014    2.972887      6.00      15.9994
     128     2 O    8    3.212369    3.213114    2.973432      6.00      15.9994
     129     2 O    8    0.901949    3.721017    4.463135      6.00      15.9994
     130     2 O    8    3.714175    0.900343    4.457277      6.00      15.9994
     131     2 O    8    6.030078    1.407075    2.967845      6.00      15.9994
     132     2 O    8    7.839034    3.216033    2.967854      6.00      15.9994
     133     2 O    8    5.521416    3.724691    4.459849      6.00      15.9994
     134     2 O    8    8.347694    0.898415    4.459846      6.00      15.9994
     135     2 O    8   10.656715    1.409967    2.973472      6.00      15.9994
     136     2 O    8   12.461154    3.213088    2.972850      6.00      15.9994
     137     2 O    8   10.155125    3.722858    4.457230      6.00      15.9994
     138     2 O    8   12.967277    0.902236    4.462999      6.00      15.9994
     139     2 O    8    1.409498    6.032398    2.973692      6.00      15.9994
     140     2 O    8    3.213643    7.836538    2.973722      6.00      15.9994
     141     2 O    8    0.902546    8.343452    4.462552      6.00      15.9994
     142     2 O    8    3.718733    5.527344    4.460802      6.00      15.9994
     143     2 O    8    6.032967    6.033714    2.973473      6.00      15.9994
     144     2 O    8    7.836088    7.838153    2.972850      6.00      15.9994
     145     2 O    8    5.525236    8.344276    4.462999      6.00      15.9994
     146     2 O    8    8.345859    5.532124    4.457230      6.00      15.9994
     147     2 O    8   10.656721    6.033719    2.972698      6.00      15.9994
     148     2 O    8   12.460221    7.837219    2.973323      6.00      15.9994
     149     2 O    8   10.146576    8.345556    4.462988      6.00      15.9994
     150     2 O    8   12.968558    5.523575    4.462990      6.00      15.9994
     151     2 O    8    1.408810   10.654810    2.973306      6.00      15.9994
     152     2 O    8    3.212365   12.458365    2.972661      6.00      15.9994
     153     2 O    8    0.900600   12.968558    4.462835      6.00      15.9994
     154     2 O    8    3.722559   10.146601    4.462835      6.00      15.9994
     155     2 O    8    6.033015   10.653971    2.972886      6.00      15.9994
     156     2 O    8    7.836116   12.458367    2.973433      6.00      15.9994
     157     2 O    8    5.523343   12.960168    4.457276      6.00      15.9994
     158     2 O    8    8.344018   10.147947    4.463134      6.00      15.9994
     159     2 O    8   10.655400   10.655497    2.973691      6.00      15.9994
     160     2 O    8   12.459539   12.459642    2.973721      6.00      15.9994
     161     2 O    8   10.150347   12.964732    4.460800      6.00      15.9994
     162     2 O    8   12.966454   10.148545    4.462552      6.00      15.9994
     163     2 O    8    1.407714    1.409957    5.954950      6.00      15.9994
     164     2 O    8    3.211884    3.212923    5.952427      6.00      15.9994
     165     2 O    8    0.902793    3.720923    7.451782      6.00      15.9994
     166     2 O    8    3.715831    0.901793    7.442323      6.00      15.9994
     167     2 O    8    6.013362    1.390342    5.908787      6.00      15.9994
     168     2 O    8    7.856059    3.233052    5.908612      6.00      15.9994
     169     2 O    8    5.512076    3.734707    7.444803      6.00      15.9994
     170     2 O    8    8.357715    0.889069    7.444800      6.00      15.9994
     171     2 O    8   10.657332    1.410221    5.952124      6.00      15.9994
     172     2 O    8   12.461521    3.213214    5.955162      6.00      15.9994
     173     2 O    8   10.153520    3.721492    7.442227      6.00      15.9994
     174     2 O    8   12.966591    0.902316    7.451465      6.00      15.9994
     175     2 O    8    1.409157    6.032553    5.954725      6.00      15.9994
     176     2 O    8    3.213587    7.836954    5.954318      6.00      15.9994
     177     2 O    8    0.902736    8.343575    7.450608      6.00      15.9994
     178     2 O    8    3.715457    5.531112    7.447660      6.00      15.9994
     179     2 O    8    6.033221    6.034329    5.952123      6.00      15.9994
     180     2 O    8    7.836216    7.838519    5.955164      6.00      15.9994
     181     2 O    8    5.525315    8.343588    7.451463      6.00      15.9994
     182     2 O    8    8.344491    5.530517    7.442227      6.00      15.9994
     183     2 O    8   10.659086    6.036083    5.951980      6.00      15.9994
     184     2 O    8   12.460962    7.837959    5.953673      6.00      15.9994
     185     2 O    8   10.146878    8.345334    7.451173      6.00      15.9994
     186     2 O    8   12.968338    5.523874    7.451174      6.00      15.9994
     187     2 O    8    1.408139   10.654139    5.953477      6.00      15.9994
     188     2 O    8    3.210072   12.456072    5.951948      6.00      15.9994
     189     2 O    8    0.900868   12.968338    7.450904      6.00      15.9994
     190     2 O    8    3.722338   10.146868    7.450901      6.00      15.9994
     191     2 O    8    6.032960   10.653709    5.954953      6.00      15.9994
     192     2 O    8    7.835926   12.457880    5.952422      6.00      15.9994
     193     2 O    8    5.524796   12.961823    7.442321      6.00      15.9994
     194     2 O    8    8.343929   10.148791    7.451778      6.00      15.9994
     195     2 O    8   10.655557   10.655154    5.954722      6.00      15.9994
     196     2 O    8   12.459956   12.459586    5.954319      6.00      15.9994
     197     2 O    8   10.154115   12.961452    7.447658      6.00      15.9994
     198     2 O    8   12.966576   10.148733    7.450608      6.00      15.9994
     199     2 O    8    1.409180    1.409377    8.947970      6.00      15.9994
     200     2 O    8    3.212859    3.212445    8.946246      6.00      15.9994
     201     2 O    8    0.902541    3.720892   10.441196      6.00      15.9994
     202     2 O    8    3.717070    0.901582   10.443052      6.00      15.9994
     203     2 O    8    5.996968    1.373930    8.940174      6.00      15.9994
     204     2 O    8    7.872695    3.249683    8.940174      6.00      15.9994
     205     2 O    8    5.512723    3.733886   10.440331      6.00      15.9994
     206     2 O    8    8.356895    0.889718   10.440331      6.00      15.9994
     207     2 O    8   10.656461    1.410751    8.945930      6.00      15.9994
     208     2 O    8   12.460057    3.213771    8.947703      6.00      15.9994
     209     2 O    8   10.152333    3.721681   10.442987      6.00      15.9994
     210     2 O    8   12.966798    0.902465   10.441126      6.00      15.9994
     211     2 O    8    1.408968    6.032735    8.948497      6.00      15.9994
     212     2 O    8    3.213499    7.837269    8.948613      6.00      15.9994
     213     2 O    8    0.902411    8.343720   10.441781      6.00      15.9994
     214     2 O    8    3.716425    5.530044   10.441217      6.00      15.9994
     215     2 O    8    6.033752    6.033459    8.945930      6.00      15.9994
     216     2 O    8    7.836773    7.837055    8.947700      6.00      15.9994
     217     2 O    8    5.525467    8.343798   10.441124      6.00      15.9994
     218     2 O    8    8.344680    5.529331   10.442986      6.00      15.9994
     219     2 O    8   10.659908    6.036905    8.946091      6.00      15.9994
     220     2 O    8   12.461256    7.838251    8.948296      6.00      15.9994
     221     2 O    8   10.146474    8.345334   10.441544      6.00      15.9994
     222     2 O    8   12.968337    5.523472   10.441546      6.00      15.9994
     223     2 O    8    1.407886   10.653886    8.948200      6.00      15.9994
     224     2 O    8    3.209261   12.455258    8.945998      6.00      15.9994
     225     2 O    8    0.900866   12.968732   10.441500      6.00      15.9994
     226     2 O    8    3.722734   10.146866   10.441498      6.00      15.9994
     227     2 O    8    6.032382   10.655174    8.947963      6.00      15.9994
     228     2 O    8    7.835450   12.458854    8.946242      6.00      15.9994
     229     2 O    8    5.524584   12.963058   10.443051      6.00      15.9994
     230     2 O    8    8.343894   10.148538   10.441195      6.00      15.9994
     231     2 O    8   10.655738   10.654964    8.948497      6.00      15.9994
     232     2 O    8   12.460270   12.459497    8.948614      6.00      15.9994
     233     2 O    8   10.153047   12.962421   10.441216      6.00      15.9994
     234     2 O    8   12.966722   10.148409   10.441782      6.00      15.9994
     235     2 O    8    1.408596    1.409975   11.931132      6.00      15.9994
     236     2 O    8    3.212571    3.212768   11.931783      6.00      15.9994
     237     2 O    8    0.902229    3.720811   13.419393      6.00      15.9994
     238     2 O    8    3.714961    0.900622   13.423059      6.00      15.9994
     239     2 O    8    6.014062    1.391040   11.970888      6.00      15.9994
     240     2 O    8    7.855352    3.232344   11.970963      6.00      15.9994
     241     2 O    8    5.521936    3.724193   13.420641      6.00      15.9994
     242     2 O    8    8.347196    0.898934   13.420643      6.00      15.9994
     243     2 O    8   10.656632    1.410414   11.931752      6.00      15.9994
     244     2 O    8   12.460587    3.213166   11.931073      6.00      15.9994
     245     2 O    8   10.154219    3.722519   13.423069      6.00      15.9994
     246     2 O    8   12.966913    0.902324   13.419383      6.00      15.9994
     247     2 O    8    1.409378    6.032493   11.931751      6.00      15.9994
     248     2 O    8    3.213640    7.836777   11.931746      6.00      15.9994
     249     2 O    8    0.902682    8.343388   13.419751      6.00      15.9994
     250     2 O    8    3.719272    5.526880   13.419846      6.00      15.9994
     251     2 O    8    6.033415    6.033631   11.931751      6.00      15.9994
     252     2 O    8    7.836167    7.837585   11.931072      6.00      15.9994
     253     2 O    8    5.525325    8.343912   13.419382      6.00      15.9994
     254     2 O    8    8.345519    5.531217   13.423068      6.00      15.9994
     255     2 O    8   10.658390    6.035387   11.932565      6.00      15.9994
     256     2 O    8   12.460495    7.837493   11.931718      6.00      15.9994
     257     2 O    8   10.146664    8.345249   13.419569      6.00      15.9994
     258     2 O    8   12.968251    5.523662   13.419570      6.00      15.9994
     259     2 O    8    1.408577   10.654576   11.931684      6.00      15.9994
     260     2 O    8    3.210721   12.456720   11.932544      6.00      15.9994
     261     2 O    8    0.900851   12.968442   13.419551      6.00      15.9994
     262     2 O    8    3.722443   10.146851   13.419550      6.00      15.9994
     263     2 O    8    6.032978   10.654592   11.931130      6.00      15.9994
     264     2 O    8    7.835770   12.458568   11.931782      6.00      15.9994
     265     2 O    8    5.523623   12.960955   13.423061      6.00      15.9994
     266     2 O    8    8.343813   10.148227   13.419392      6.00      15.9994
     267     2 O    8   10.655495   10.655375   11.931751      6.00      15.9994
     268     2 O    8   12.459777   12.459638   11.931746      6.00      15.9994
     269     2 O    8   10.149882   12.965270   13.419846      6.00      15.9994
     270     2 O    8   12.966389   10.148681   13.419751      6.00      15.9994




 SCF PARAMETERS         Density guess:                                   RESTART
                        --------------------------------------------------------
                        max_scf:                                             500
                        max_scf_history:                                       0
                        max_diis:                                              4
                        --------------------------------------------------------
                        eps_scf:                                        1.00E-05
                        eps_scf_history:                                0.00E+00
                        eps_diis:                                       5.00E-01
                        eps_eigval:                                     1.00E-05
                        --------------------------------------------------------
                        level_shift [a.u.]:                                 0.00
                        --------------------------------------------------------
                        Mixing method:                            BROYDEN_MIXING
                                                charge density mixing in g-space
                        --------------------------------------------------------
                        Outer loop SCF in use 
                        No variables optimised in outer loop
                        eps_scf                                         1.00E-05
                        max_scf                                              500
                        No outer loop optimization
                        step_size                                       5.00E-01

 PW_GRID| Information for grid number                                          1
 PW_GRID| Grid distributed over                                    40 processors
 PW_GRID| Real space group dimensions                                    40    1
 PW_GRID| the grid is blocked:                                                NO
 PW_GRID| Cutoff [a.u.]                                                    325.0
 PW_GRID| spherical cutoff:                                                   NO
 PW_GRID|   Bounds   1           -108     107                Points:         216
 PW_GRID|   Bounds   2           -108     107                Points:         216
 PW_GRID|   Bounds   3           -115     115                Points:         231
 PW_GRID| Volume element (a.u.^3)  0.1795E-02     Volume (a.u.^3)     19349.8300
 PW_GRID| Grid span                                                    FULLSPACE
 PW_GRID|   Distribution                         Average         Max         Min
 PW_GRID|   G-Vectors                           269438.4      269568      269352
 PW_GRID|   G-Rays                                1247.4        1248        1247
 PW_GRID|   Real Space Points                   269438.4      299376      249480

 PW_GRID| Information for grid number                                          2
 PW_GRID| Grid distributed over                                    40 processors
 PW_GRID| Real space group dimensions                                    40    1
 PW_GRID| the grid is blocked:                                                NO
 PW_GRID| Cutoff [a.u.]                                                    108.3
 PW_GRID| spherical cutoff:                                                   NO
 PW_GRID|   Bounds   1            -63      62                Points:         126
 PW_GRID|   Bounds   2            -63      62                Points:         126
 PW_GRID|   Bounds   3            -66      65                Points:         132
 PW_GRID| Volume element (a.u.^3)  0.9233E-02     Volume (a.u.^3)     19349.8300
 PW_GRID| Grid span                                                    FULLSPACE
 PW_GRID|   Distribution                         Average         Max         Min
 PW_GRID|   G-Vectors                            52390.8       52794       52290
 PW_GRID|   G-Rays                                 415.8         419         415
 PW_GRID|   Real Space Points                    52390.8       66528       49896

 PW_GRID| Information for grid number                                          3
 PW_GRID| Grid distributed over                                    40 processors
 PW_GRID| Real space group dimensions                                    40    1
 PW_GRID| the grid is blocked:                                                NO
 PW_GRID| Cutoff [a.u.]                                                     36.1
 PW_GRID| spherical cutoff:                                                   NO
 PW_GRID|   Bounds   1            -36      35                Points:          72
 PW_GRID|   Bounds   2            -36      35                Points:          72
 PW_GRID|   Bounds   3            -38      38                Points:          77
 PW_GRID| Volume element (a.u.^3)  0.4848E-01     Volume (a.u.^3)     19349.8300
 PW_GRID| Grid span                                                    FULLSPACE
 PW_GRID|   Distribution                         Average         Max         Min
 PW_GRID|   G-Vectors                             9979.2       10008        9936
 PW_GRID|   G-Rays                                 138.6         139         138
 PW_GRID|   Real Space Points                     9979.2       11088        5544

 PW_GRID| Information for grid number                                          4
 PW_GRID| Grid distributed over                                    40 processors
 PW_GRID| Real space group dimensions                                    40    1
 PW_GRID| the grid is blocked:                                                NO
 PW_GRID| Cutoff [a.u.]                                                     12.0
 PW_GRID| spherical cutoff:                                                   NO
 PW_GRID|   Bounds   1            -21      20                Points:          42
 PW_GRID|   Bounds   2            -21      20                Points:          42
 PW_GRID|   Bounds   3            -22      21                Points:          44
 PW_GRID| Volume element (a.u.^3)  0.2493         Volume (a.u.^3)     19349.8300
 PW_GRID| Grid span                                                    FULLSPACE
 PW_GRID|   Distribution                         Average         Max         Min
 PW_GRID|   G-Vectors                             1940.4        2058        1848
 PW_GRID|   G-Rays                                  46.2          49          44
 PW_GRID|   Real Space Points                     1940.4        3696        1848

 PW_GRID| Information for grid number                                          5
 PW_GRID| Grid distributed over                                    40 processors
 PW_GRID| Real space group dimensions                                     5    8
 PW_GRID| the grid is blocked:                                                NO
 PW_GRID| Cutoff [a.u.]                                                      4.0
 PW_GRID| spherical cutoff:                                                   NO
 PW_GRID|   Bounds   1            -12      11                Points:          24
 PW_GRID|   Bounds   2            -12      11                Points:          24
 PW_GRID|   Bounds   3            -12      12                Points:          25
 PW_GRID| Volume element (a.u.^3)   1.344         Volume (a.u.^3)     19349.8300
 PW_GRID| Grid span                                                    FULLSPACE
 PW_GRID|   Distribution                         Average         Max         Min
 PW_GRID|   G-Vectors                              360.0         408         336
 PW_GRID|   G-Rays                                  15.0          17          14
 PW_GRID|   Real Space Points                      360.0         375         300

 PW_GRID| Information for grid number                                          6
 PW_GRID| Grid distributed over                                    40 processors
 PW_GRID| Real space group dimensions                                     5    8
 PW_GRID| the grid is blocked:                                                NO
 PW_GRID| Cutoff [a.u.]                                                      1.3
 PW_GRID| spherical cutoff:                                                   NO
 PW_GRID|   Bounds   1             -7       6                Points:          14
 PW_GRID|   Bounds   2             -7       6                Points:          14
 PW_GRID|   Bounds   3             -7       7                Points:          15
 PW_GRID| Volume element (a.u.^3)   6.582         Volume (a.u.^3)     19349.8300
 PW_GRID| Grid span                                                    FULLSPACE
 PW_GRID|   Distribution                         Average         Max         Min
 PW_GRID|   G-Vectors                               73.5          98          56
 PW_GRID|   G-Rays                                   5.2           7           4
 PW_GRID|   Real Space Points                       73.5          90          30

 PW_GRID| Information for grid number                                          7
 PW_GRID| Grid distributed over                                    40 processors
 PW_GRID| Real space group dimensions                                     5    8
 PW_GRID| the grid is blocked:                                                NO
 PW_GRID| Cutoff [a.u.]                                                      0.4
 PW_GRID| spherical cutoff:                                                   NO
 PW_GRID|   Bounds   1             -3       3                Points:           7
 PW_GRID|   Bounds   2             -3       3                Points:           7
 PW_GRID|   Bounds   3             -4       4                Points:           9
 PW_GRID| Volume element (a.u.^3)   43.88         Volume (a.u.^3)     19349.8300
 PW_GRID| Grid span                                                    FULLSPACE
 PW_GRID|   Distribution                         Average         Max         Min
 PW_GRID|   G-Vectors                               11.0          28           0
 PW_GRID|   G-Rays                                   1.6           4           0
 PW_GRID|   Real Space Points                       11.0          18           0

 PW_GRID| Information for grid number                                          8
 PW_GRID| Grid distributed over                                    40 processors
 PW_GRID| Real space group dimensions                                     5    8
 PW_GRID| the grid is blocked:                                                NO
 PW_GRID| Cutoff [a.u.]                                                      0.1
 PW_GRID| spherical cutoff:                                                   NO
 PW_GRID|   Bounds   1             -2       2                Points:           5
 PW_GRID|   Bounds   2             -2       2                Points:           5
 PW_GRID|   Bounds   3             -2       2                Points:           5
 PW_GRID| Volume element (a.u.^3)   154.8         Volume (a.u.^3)     19349.8300
 PW_GRID| Grid span                                                    FULLSPACE
 PW_GRID|   Distribution                         Average         Max         Min
 PW_GRID|   G-Vectors                                3.1          10           0
 PW_GRID|   G-Rays                                   0.6           2           0
 PW_GRID|   Real Space Points                        3.1           5           0

 PW_GRID| Information for grid number                                          9
 PW_GRID| Grid distributed over                                    40 processors
 PW_GRID| Real space group dimensions                                     5    8
 PW_GRID| the grid is blocked:                                                NO
 PW_GRID| Cutoff [a.u.]                                                      0.0
 PW_GRID| spherical cutoff:                                                   NO
 PW_GRID|   Bounds   1             -1       1                Points:           3
 PW_GRID|   Bounds   2             -1       1                Points:           3
 PW_GRID|   Bounds   3             -1       1                Points:           3
 PW_GRID| Volume element (a.u.^3)   716.7         Volume (a.u.^3)     19349.8300
 PW_GRID| Grid span                                                    FULLSPACE
 PW_GRID|   Distribution                         Average         Max         Min
 PW_GRID|   G-Vectors                                0.7           3           0
 PW_GRID|   G-Rays                                   0.2           1           0
 PW_GRID|   Real Space Points                        0.7           3           0

 PW_GRID| Information for grid number                                         10
 PW_GRID| Grid distributed over                                    40 processors
 PW_GRID| Real space group dimensions                                     5    8
 PW_GRID| the grid is blocked:                                                NO
 PW_GRID| Cutoff [a.u.]                                                      0.0
 PW_GRID| spherical cutoff:                                                   NO
 PW_GRID|   Bounds   1              0       0                Points:           1
 PW_GRID|   Bounds   2              0       0                Points:           1
 PW_GRID|   Bounds   3              0       0                Points:           1
 PW_GRID| Volume element (a.u.^3)  0.1935E+05     Volume (a.u.^3)     19349.8300
 PW_GRID| Grid span                                                    FULLSPACE
 PW_GRID|   Distribution                         Average         Max         Min
 PW_GRID|   G-Vectors                                0.0           1           0
 PW_GRID|   G-Rays                                   0.0           1           0
 PW_GRID|   Real Space Points                        0.0           1           0

 POISSON| Solver                                                        PERIODIC
 POISSON| Periodicity                                                        XYZ

 RS_GRID| Information for grid number                                          1
 RS_GRID|   Bounds   1           -108     107                Points:         216
 RS_GRID|   Bounds   2           -108     107                Points:         216
 RS_GRID|   Bounds   3           -115     115                Points:         231
 RS_GRID| Real space distribution over                                  5 groups
 RS_GRID| Real space distribution along direction                              2
 RS_GRID| Border size                                                         27
 RS_GRID| Real space distribution over                                  8 groups
 RS_GRID| Real space distribution along direction                              3
 RS_GRID| Border size                                                         27
 RS_GRID|   Distribution                         Average         Max         Min
 RS_GRID|   Planes                                  97.2          98          97
 RS_GRID|   Distribution                         Average         Max         Min
 RS_GRID|   Planes                                  82.9          83          82

 RS_GRID| Information for grid number                                          2
 RS_GRID|   Bounds   1            -63      62                Points:         126
 RS_GRID|   Bounds   2            -63      62                Points:         126
 RS_GRID|   Bounds   3            -66      65                Points:         132
 RS_GRID| Real space distribution over                                  5 groups
 RS_GRID| Real space distribution along direction                              2
 RS_GRID| Border size                                                         26
 RS_GRID| Real space distribution over                                  8 groups
 RS_GRID| Real space distribution along direction                              3
 RS_GRID| Border size                                                         26
 RS_GRID|   Distribution                         Average         Max         Min
 RS_GRID|   Planes                                  77.2          78          77
 RS_GRID|   Distribution                         Average         Max         Min
 RS_GRID|   Planes                                  68.5          69          68

 RS_GRID| Information for grid number                                          3
 RS_GRID|   Bounds   1            -36      35                Points:          72
 RS_GRID|   Bounds   2            -36      35                Points:          72
 RS_GRID|   Bounds   3            -38      38                Points:          77
 RS_GRID| Real space fully replicated
 RS_GRID| Group size                                                           1

 RS_GRID| Information for grid number                                          4
 RS_GRID|   Bounds   1            -21      20                Points:          42
 RS_GRID|   Bounds   2            -21      20                Points:          42
 RS_GRID|   Bounds   3            -22      21                Points:          44
 RS_GRID| Real space fully replicated
 RS_GRID| Group size                                                           1

 RS_GRID| Information for grid number                                          5
 RS_GRID|   Bounds   1            -12      11                Points:          24
 RS_GRID|   Bounds   2            -12      11                Points:          24
 RS_GRID|   Bounds   3            -12      12                Points:          25
 RS_GRID| Real space fully replicated
 RS_GRID| Group size                                                           1

 RS_GRID| Information for grid number                                          6
 RS_GRID|   Bounds   1             -7       6                Points:          14
 RS_GRID|   Bounds   2             -7       6                Points:          14
 RS_GRID|   Bounds   3             -7       7                Points:          15
 RS_GRID| Real space fully replicated
 RS_GRID| Group size                                                           1

 RS_GRID| Information for grid number                                          7
 RS_GRID|   Bounds   1             -3       3                Points:           7
 RS_GRID|   Bounds   2             -3       3                Points:           7
 RS_GRID|   Bounds   3             -4       4                Points:           9
 RS_GRID| Real space fully replicated
 RS_GRID| Group size                                                           1

 RS_GRID| Information for grid number                                          8
 RS_GRID|   Bounds   1             -2       2                Points:           5
 RS_GRID|   Bounds   2             -2       2                Points:           5
 RS_GRID|   Bounds   3             -2       2                Points:           5
 RS_GRID| Real space fully replicated
 RS_GRID| Group size                                                           1

 RS_GRID| Information for grid number                                          9
 RS_GRID|   Bounds   1             -1       1                Points:           3
 RS_GRID|   Bounds   2             -1       1                Points:           3
 RS_GRID|   Bounds   3             -1       1                Points:           3
 RS_GRID| Real space fully replicated
 RS_GRID| Group size                                                           1

 RS_GRID| Information for grid number                                         10
 RS_GRID|   Bounds   1              0       0                Points:           1
 RS_GRID|   Bounds   2              0       0                Points:           1
 RS_GRID|   Bounds   3              0       0                Points:           1
 RS_GRID| Real space fully replicated
 RS_GRID| Group size                                                           1

 Spin 1

 Number of electrons:                                                       1081
 Number of occupied orbitals:                                               1081
 Number of molecular orbitals:                                              1081

 Spin 2

 Number of electrons:                                                       1080
 Number of occupied orbitals:                                               1080
 Number of molecular orbitals:                                              1080

 Number of orbital functions:                                               1620
 Number of independent orbital functions:                                   1620

 Extrapolation method: initial_guess


 SCF WAVEFUNCTION OPTIMIZATION

  Step     Update method      Time    Convergence         Total energy    Change
  ------------------------------------------------------------------------------
     1 NoMix/Diag. 0.40E+00    6.1     0.01494138     -8111.7604007818 -8.11E+03
     2 Broy./Diag. 0.40E+00    9.8     0.00879528     -8111.7558210204  4.58E-03
     3 Broy./Diag. 0.40E+00    9.7     0.00260582     -8111.7693526866 -1.35E-02
     4 Broy./Diag. 0.40E+00    9.7     0.00125280     -8111.7767410828 -7.39E-03
     5 Broy./Diag. 0.40E+00    9.7     0.00035593     -8111.7759052573  8.36E-04
     6 Broy./Diag. 0.40E+00    9.8     0.00044717     -8111.7695058916  6.40E-03
     7 Broy./Diag. 0.40E+00    9.7     0.00022742     -8111.7683819043  1.12E-03
     8 Broy./Diag. 0.40E+00    9.8     0.00008662     -8111.7681224035  2.60E-04
     9 Broy./Diag. 0.40E+00    9.8     0.00008005     -8111.7676985957  4.24E-04
    10 Broy./Diag. 0.40E+00    9.8     0.00003239     -8111.7678587830 -1.60E-04
    11 Broy./Diag. 0.40E+00    9.8     0.00001989     -8111.7679656502 -1.07E-04
    12 Broy./Diag. 0.40E+00    9.9     0.00001873     -8111.7681239746 -1.58E-04
    13 Broy./Diag. 0.40E+00    9.8     0.00000856     -8111.7681630509 -3.91E-05

  *** SCF run converged in    13 steps ***


  Electronic density on regular grids:      -2160.9999999994        0.0000000006
  Core density on regular grids:             2159.9999999994       -0.0000000006
  Total charge density on r-space grids:       -1.0000000000
  Total charge density g-space grids:          -1.0000000000

  Overlap energy of the core charge distribution:               0.00000000000198
  Self energy of the core charge distribution:             -17095.63438313942970
  Core Hamiltonian energy:                                   4650.81416551912480
  Hartree energy:                                            5621.21364987086417
  Exchange-correlation energy:                              -1307.30578241567036

  DFT+U energy:                                                19.14418711417442

  Total energy:                                             -8111.76816305093325

  outer SCF iter =    1 RMS gradient =   0.86E-05 energy =      -8111.7681630509
  outer SCF loop converged in   1 iterations or   13 steps


  Integrated absolute spin density  :                               1.0861053817
  Ideal and single determinant S**2 :                    0.750000       0.754508

 !-----------------------------------------------------------------------------!
                     Mulliken Population Analysis

 #  Atom  Element  Kind  Atomic population (alpha,beta) Net charge  Spin moment
       1     Ti       1         5.244729     5.244734     1.510536    -0.000005
       2     Ti       1         5.244706     5.244704     1.510590     0.000001
       3     Ti       1         5.244852     5.245057     1.510091    -0.000205
       4     Ti       1         5.245483     5.244935     1.509582     0.000548
       5     Ti       1         5.244761     5.244788     1.510451    -0.000027
       6     Ti       1         5.244712     5.244711     1.510577     0.000001
       7     Ti       1         5.244725     5.244730     1.510545    -0.000005
       8     Ti       1         5.244818     5.244833     1.510349    -0.000015
       9     Ti       1         5.244761     5.244788     1.510451    -0.000027
      10     Ti       1         5.244712     5.244711     1.510577     0.000001
      11     Ti       1         5.244851     5.245056     1.510093    -0.000205
      12     Ti       1         5.245355     5.245365     1.509280    -0.000010
      13     Ti       1         5.245114     5.245099     1.509787     0.000016
      14     Ti       1         5.245358     5.245368     1.509273    -0.000010
      15     Ti       1         5.244729     5.244734     1.510536    -0.000005
      16     Ti       1         5.244706     5.244704     1.510590     0.000001
      17     Ti       1         5.244725     5.244730     1.510544    -0.000005
      18     Ti       1         5.244818     5.244833     1.510349    -0.000015
      19     Ti       1         5.244768     5.244773     1.510459    -0.000005
      20     Ti       1         5.244873     5.244870     1.510258     0.000003
      21     Ti       1         5.245074     5.245075     1.509851    -0.000002
      22     Ti       1         5.246363     5.245660     1.507978     0.000703
      23     Ti       1         5.244680     5.244683     1.510637    -0.000003
      24     Ti       1         5.244870     5.244868     1.510262     0.000003
      25     Ti       1         5.244768     5.244773     1.510460    -0.000005
      26     Ti       1         5.244705     5.244721     1.510574    -0.000017
      27     Ti       1         5.244680     5.244683     1.510637    -0.000003
      28     Ti       1         5.244870     5.244868     1.510262     0.000003
      29     Ti       1         5.245077     5.245078     1.509845    -0.000002
      30     Ti       1         5.245280     5.245283     1.509437    -0.000003
      31     Ti       1         5.245048     5.245057     1.509896    -0.000009
      32     Ti       1         5.245281     5.245284     1.509434    -0.000003
      33     Ti       1         5.244768     5.244773     1.510459    -0.000005
      34     Ti       1         5.244873     5.244870     1.510258     0.000003
      35     Ti       1         5.244768     5.244773     1.510459    -0.000005
      36     Ti       1         5.244705     5.244721     1.510574    -0.000017
      37     Ti       1         5.244933     5.244938     1.510128    -0.000005
      38     Ti       1         5.245462     5.245481     1.509057    -0.000019
      39     Ti       1         5.244880     5.244968     1.510151    -0.000088
      40     Ti       1         5.247195     5.251416     1.501389    -0.004222
      41     Ti       1         5.245724     5.245743     1.508533    -0.000020
      42     Ti       1         5.245444     5.245463     1.509093    -0.000019
      43     Ti       1         5.244933     5.244938     1.510128    -0.000005
      44     Ti       1         5.244781     5.244760     1.510459     0.000022
      45     Ti       1         5.245724     5.245744     1.508532    -0.000020
      46     Ti       1         5.245444     5.245463     1.509093    -0.000019
      47     Ti       1         5.244888     5.244975     1.510137    -0.000088
      48     Ti       1         5.245923     5.245641     1.508436     0.000283
      49     Ti       1         5.245116     5.245095     1.509789     0.000020
      50     Ti       1         5.245930     5.245647     1.508424     0.000283
      51     Ti       1         5.244934     5.244938     1.510128    -0.000005
      52     Ti       1         5.245462     5.245481     1.509057    -0.000019
      53     Ti       1         5.244933     5.244938     1.510128    -0.000005
      54     Ti       1         5.244781     5.244760     1.510459     0.000022
      55     Ti       1         5.244850     5.244846     1.510304     0.000004
      56     Ti       1         5.244398     5.244441     1.511161    -0.000043
      57     Ti       1         5.248463     5.243360     1.508176     0.005103
      58     Ti       1         5.784855     4.792533     1.422612     0.992323
      59     Ti       1         5.247151     5.245672     1.507177     0.001479
      60     Ti       1         5.244391     5.244435     1.511174    -0.000043
      61     Ti       1         5.244849     5.244846     1.510305     0.000004
      62     Ti       1         5.244722     5.244560     1.510718     0.000163
      63     Ti       1         5.247152     5.245672     1.507176     0.001479
      64     Ti       1         5.244391     5.244435     1.511174    -0.000043
      65     Ti       1         5.248458     5.243362     1.508179     0.005096
      66     Ti       1         5.246359     5.245109     1.508532     0.001250
      67     Ti       1         5.245350     5.245005     1.509645     0.000345
      68     Ti       1         5.246369     5.245118     1.508513     0.001251
      69     Ti       1         5.244850     5.244846     1.510304     0.000004
      70     Ti       1         5.244398     5.244441     1.511162    -0.000043
      71     Ti       1         5.244849     5.244845     1.510305     0.000004
      72     Ti       1         5.244722     5.244560     1.510718     0.000163
      73     Ti       1         5.244620     5.244614     1.510766     0.000006
      74     Ti       1         5.244515     5.244528     1.510957    -0.000013
      75     Ti       1         5.248023     5.243776     1.508201     0.004247
      76     Ti       1         5.243359     5.246598     1.510043    -0.003239
      77     Ti       1         5.245859     5.244495     1.509646     0.001365
      78     Ti       1         5.244518     5.244532     1.510950    -0.000013
      79     Ti       1         5.244626     5.244620     1.510755     0.000006
      80     Ti       1         5.244852     5.244823     1.510325     0.000028
      81     Ti       1         5.245860     5.244495     1.509645     0.001365
      82     Ti       1         5.244518     5.244532     1.510950    -0.000013
      83     Ti       1         5.248020     5.243773     1.508207     0.004246
      84     Ti       1         5.245460     5.245227     1.509313     0.000232
      85     Ti       1         5.245226     5.244903     1.509872     0.000323
      86     Ti       1         5.245466     5.245234     1.509300     0.000232
      87     Ti       1         5.244620     5.244614     1.510766     0.000006
      88     Ti       1         5.244515     5.244528     1.510957    -0.000013
      89     Ti       1         5.244626     5.244620     1.510755     0.000006
      90     Ti       1         5.244852     5.244824     1.510325     0.000028
      91     O        2         3.379702     3.379722    -0.759424    -0.000021
      92     O        2         3.379613     3.379623    -0.759236    -0.000010
      93     O        2         3.379759     3.379761    -0.759520    -0.000002
      94     O        2         3.379916     3.379911    -0.759827     0.000004
      95     O        2         3.381117     3.381221    -0.762339    -0.000104
      96     O        2         3.381120     3.381225    -0.762345    -0.000105
      97     O        2         3.379644     3.379689    -0.759333    -0.000045
      98     O        2         3.379644     3.379689    -0.759333    -0.000045
      99     O        2         3.379614     3.379623    -0.759237    -0.000010
     100     O        2         3.379690     3.379711    -0.759402    -0.000021
     101     O        2         3.379914     3.379910    -0.759824     0.000004
     102     O        2         3.379764     3.379766    -0.759530    -0.000002
     103     O        2         3.379700     3.379706    -0.759406    -0.000006
     104     O        2         3.379692     3.379698    -0.759391    -0.000006
     105     O        2         3.379856     3.379857    -0.759713    -0.000002
     106     O        2         3.380211     3.380204    -0.760415     0.000007
[...]
       0.22702965       0.22734882       0.22767408       0.22795352
       0.22801681       0.22925314       0.23044767       0.23806045
       0.23831662       0.23840807       0.23841529       0.23873374
       0.23874962       0.23899098       0.23901183       0.23912360
       0.23962342       0.23962583       0.23976273       0.23987413
       0.24041618       0.24122638       0.24153442       0.24163804
       0.24193261       0.24217809       0.24238326       0.24254477
       0.24275208       0.24278676       0.24329336       0.24400021
       0.24400876       0.24439093       0.24476968       0.24544745
       0.24568003       0.24574470       0.24575065       0.24597642
       0.24619105       0.24637945       0.24641416       0.24666137
       0.24698312       0.24712113       0.24718995       0.24720590
       0.24950985       0.25196940       0.25200208       0.25211026
       0.25234842       0.25235077       0.25244398       0.25266993
       0.25289085       0.25291536       0.25307020       0.25328377
       0.25336338       0.25340910       0.25360816       0.25370928
       0.25443034       0.25443882       0.25493870       0.25497938
       0.25500258       0.25559587       0.25561315       0.25588192
       0.25623644       0.25657058       0.25705561       0.25726111
       0.25790882       0.25810780       0.25822110       0.25971250
       0.26028570       0.26058123       0.26061057       0.26091320
       0.26100495       0.26132950       0.26149028       0.26167548
       0.26184523       0.26192276       0.26200233       0.26209076
       0.26217842       0.26218813       0.26225765       0.26290172
       0.26292326       0.26318515       0.26346981       0.26357947
       0.26392553       0.26416288       0.26420851       0.26441390
       0.26445529       0.26455027       0.26484874       0.26509010
       0.26509492       0.26576510       0.26581057       0.26618354
       0.26669820       0.26685458       0.26692057       0.26760725
       0.26764477       0.26768395       0.26876959       0.27032561
       0.27377816       0.27384269       0.27406184       0.27420622
       0.27441297       0.27458272       0.27482822       0.27499143
       0.27853696       0.27886830       0.27892259       0.27917745
       0.27958939       0.27967701       0.27971452       0.28050928
       0.28070506       0.28078663       0.28106861       0.28128559
       0.28133412       0.28144278       0.28151408       0.28160237
       0.28168266       0.28201583       0.28209196       0.28232816
       0.28235813       0.28239228       0.28250334       0.28276538
       0.28329380       0.28357651       0.28366934       0.28369889
       0.28375156       0.28385738       0.28400020       0.28426256
       0.28428959       0.28469251       0.28476964       0.28534418
       0.28541233       0.28545196       0.28549029       0.28553108
       0.28577461       0.28579454       0.28591427       0.28624752
       0.28635675       0.28636647       0.28647309       0.28693792
       0.28717210       0.28747326       0.28847491       0.28910640
       0.28947824       0.29005274       0.29138180       0.29168165
       0.29240423       0.29393731       0.29398403       0.29400594
       0.29439034       0.29478885       0.29482824       0.29496769
       0.29517167       0.29519938       0.29584788       0.29629822
       0.29743092       0.29760733       0.29985155       0.29992778
       0.30033831       0.30044222       0.30049847       0.30057351
       0.30071242       0.30086886       0.30095950       0.30111249
       0.30132695       0.30147214       0.30176865       0.30204312
       0.30257334       0.30303921       0.30444970       0.30457980
       0.30500715       0.30513335       0.30531934       0.30552989
       0.30564012       0.30651743       0.30956161       0.30986237
       0.31001417       0.31062989       0.31186257       0.31212291
       0.31214168       0.31227588       0.31282624       0.31350218
       0.31367521       0.31430280       0.31444593       0.31610703
       0.31639896       0.31690592       0.31697708       0.32044173
       0.32050760       0.32057020       0.32068837       0.32084228
       0.32106399       0.32131949       0.32207537       0.32577886
       0.32603156       0.32634665       0.32672479       0.32799389
       0.32801073       0.33148763       0.33234574       0.34101862
 Fermi Energy [eV] :    9.279589
  
  Lowest eigenvalues of the unoccupied subspace spin            1
 ---------------------------------------------

  
  Lowest eigenvalues of the unoccupied subspace spin            2
 ---------------------------------------------


 ENERGY| Total FORCE_EVAL ( QS ) energy (a.u.):            -8111.768163050933254


 -------------------------------------------------------------------------------
 -                                                                             -
 -                                DBCSR STATISTICS                             -
 -                                                                             -
 -------------------------------------------------------------------------------
 COUNTER                                    TOTAL       BLAS       SMM       ACC
 flops     4 x    25 x     4             25920000     100.0%      0.0%      0.0%
 flops    10 x    25 x     4             32400000     100.0%      0.0%      0.0%
 flops     4 x    25 x    10             32400000     100.0%      0.0%      0.0%
 flops    10 x    25 x    10             40500000     100.0%      0.0%      0.0%
 flops     4 x    24 x     4             49766400     100.0%      0.0%      0.0%
 flops    10 x    24 x     4             62208000     100.0%      0.0%      0.0%
 flops     4 x    24 x    10             62208000     100.0%      0.0%      0.0%
 flops    10 x    24 x    10             77760000     100.0%      0.0%      0.0%
 flops     4 x     4 x    56            408683520     100.0%      0.0%      0.0%
 flops     4 x     4 x    57            415981440     100.0%      0.0%      0.0%
 flops    10 x     4 x    56            508032000     100.0%      0.0%      0.0%
 flops     4 x    10 x    56            508032000     100.0%      0.0%      0.0%
 flops    10 x     4 x    57            517104000     100.0%      0.0%      0.0%
 flops     4 x    10 x    57            517104000     100.0%      0.0%      0.0%
 flops    10 x    10 x    56            642096000     100.0%      0.0%      0.0%
 flops    10 x    10 x    57            653562000     100.0%      0.0%      0.0%
 flops     4 x     4 x    32           2802401280     100.0%      0.0%      0.0%
 flops     4 x    32 x     4           3284582400     100.0%      0.0%      0.0%
 flops    10 x     4 x    32           3483648000     100.0%      0.0%      0.0%
 flops     4 x    10 x    32           3483648000     100.0%      0.0%      0.0%
 flops    10 x    32 x     4           4105728000     100.0%      0.0%      0.0%
 flops     4 x    32 x    10           4105728000     100.0%      0.0%      0.0%
 flops    10 x    10 x    32           4402944000     100.0%      0.0%      0.0%
 flops    10 x    32 x    10           5132160000     100.0%      0.0%      0.0%
 flops     4 x     4 x    64          12143738880     100.0%      0.0%      0.0%
 flops    10 x     4 x    64          15095808000     100.0%      0.0%      0.0%
 flops     4 x    10 x    64          15095808000     100.0%      0.0%      0.0%
 flops    10 x    10 x    64          19079424000     100.0%      0.0%      0.0%
 flops inhomo. stacks                           0       0.0%      0.0%      0.0%
 flops total                        96.769376E+09     100.0%      0.0%      0.0%
 flops max/rank                      2.599835E+09     100.0%      0.0%      0.0%
 matmuls inhomo. stacks                         0       0.0%      0.0%      0.0%
 matmuls total                           27923400     100.0%      0.0%      0.0%
 number of processed stacks                102560     100.0%      0.0%      0.0%
 average stack size                                   272.3       0.0       0.0
 marketing flops                   175.808545E+09
 -------------------------------------------------------------------------------
 # multiplications                             31
 max memory usage/rank             420.360192E+06
 # max total images/rank                        5
 # max 3D layers                                1
 # MPI messages exchanged                   78120
 MPI messages size (bytes):
  total size                         8.002554E+09
  min size                          40.960000E+03
  max size                         280.704000E+03
  average size                     102.439242E+03
 MPI breakdown and total messages size (bytes):
             size <=      128                   0                        0
       128 < size <=     8192                   0                        0
      8192 < size <=    32768                   0                        0
     32768 < size <=   131072               61848               4533913440
    131072 < size <=  4194304               16272               3468640320
   4194304 < size <= 16777216                   0                        0
  16777216 < size                               0                        0
 -------------------------------------------------------------------------------

 *** WARNING in dbcsr/mm/dbcsr_mm.F:268 :: Using a non-square number of ***
 *** MPI ranks might lead to poor performance.                          ***
 *** Used ranks: 40                                                     ***
 *** Suggested: 36 81                                                   ***

 -------------------------------------------------------------------------------

 MEMORY| Estimated peak process memory [MiB]                                 402

 -------------------------------------------------------------------------------
 ----                             MULTIGRID INFO                            ----
 -------------------------------------------------------------------------------
 count for grid        1:         884860          cutoff [a.u.]          325.00
 count for grid        2:         501740          cutoff [a.u.]          108.33
 count for grid        3:         797619          cutoff [a.u.]           36.11
 count for grid        4:        1053948          cutoff [a.u.]           12.04
 count for grid        5:         551047          cutoff [a.u.]            4.01
 count for grid        6:              0          cutoff [a.u.]            1.34
 count for grid        7:              0          cutoff [a.u.]            0.45
 count for grid        8:              0          cutoff [a.u.]            0.15
 count for grid        9:              0          cutoff [a.u.]            0.05
 count for grid       10:              0          cutoff [a.u.]            0.02
 total gridlevel count  :        3789214

 -------------------------------------------------------------------------------
 -                                                                             -
 -                         MESSAGE PASSING PERFORMANCE                         -
 -                                                                             -
 -------------------------------------------------------------------------------

 ROUTINE             CALLS      AVE VOLUME [Bytes]
 MP_Group               41
 MP_Bcast             2312                 167558.
 MP_Allreduce          729                   1307.
 MP_Sync               468
 MP_Alltoall          1622
 MP_ISendRecv        16848                  15276.
 MP_Wait             25844
 MP_comm_split          26
 MP_ISend            10226                 129117.
 MP_IRecv            10188                 128782.
 MP_Recv                66                 414720.
 MP_Memory            4818
 -------------------------------------------------------------------------------


 -------------------------------------------------------------------------------
 -                                                                             -
 -                           R E F E R E N C E S                               -
 -                                                                             -
 -------------------------------------------------------------------------------
 
 CP2K version 6.1, the CP2K developers group (2018).
 CP2K is freely available from https://www.cp2k.org/ .

 Schuett, Ole; Messmer, Peter; Hutter, Juerg; VandeVondele, Joost. 
 Electronic Structure Calculations on Graphics Processing Units, John Wiley & Sons, Ltd, 173-190 (2016). 
 GPU-Accelerated Sparse Matrix-Matrix Multiplication for Linear Scaling Density Functional Theory.
 http://dx.doi.org/10.1002/9781118670712.ch8


 Borstnik, U; VandeVondele, J; Weber, V; Hutter, J. 
 PARALLEL COMPUTING, 40 (5-6), 47-58 (2014). 
 Sparse matrix multiplication: The distributed block-compressed sparse
 row library.
 http://dx.doi.org/10.1016/j.parco.2014.03.012


 Hutter, J; Iannuzzi, M; Schiffmann, F; VandeVondele, J. 
 WILEY INTERDISCIPLINARY REVIEWS-COMPUTATIONAL MOLECULAR SCIENCE, 4 (1), 15-25 (2014). 
 CP2K: atomistic simulations of condensed matter systems.
 http://dx.doi.org/10.1002/wcms.1159


 VandeVondele, J; Hutter, J. 
 JOURNAL OF CHEMICAL PHYSICS, 127 (11), 114105 (2007). 
 Gaussian basis sets for accurate calculations on molecular systems in
 gas and condensed phases.
 http://dx.doi.org/10.1063/1.2770708


 Krack, M. 
 THEORETICAL CHEMISTRY ACCOUNTS, 114 (1-3), 145-152 (2005). 
 Pseudopotentials for H to Kr optimized for gradient-corrected
 exchange-correlation functionals.
 http://dx.doi.org/10.1007/s00214-005-0655-y


 VandeVondele, J; Krack, M; Mohamed, F; Parrinello, M; Chassaing, T;
 Hutter, J. COMPUTER PHYSICS COMMUNICATIONS, 167 (2), 103-128 (2005). 
 QUICKSTEP: Fast and accurate density functional calculations using a
 mixed Gaussian and plane waves approach.
 http://dx.doi.org/10.1016/j.cpc.2004.12.014


 Frigo, M; Johnson, SG. 
 PROCEEDINGS OF THE IEEE, 93 (2), 216-231 (2005). 
 The design and implementation of FFTW3.
 http://dx.doi.org/10.1109/JPROC.2004.840301


 Hartwigsen, C; Goedecker, S; Hutter, J. 
 PHYSICAL REVIEW B, 58 (7), 3641-3662 (1998). 
 Relativistic separable dual-space Gaussian pseudopotentials from H to Rn.
 http://dx.doi.org/10.1103/PhysRevB.58.3641


 Dudarev, SL; Botton, GA; Savrasov, SY; Humphreys, CJ; Sutton, AP. 
 PHYSICAL REVIEW B, 57 (3), 1505-1509 (1998). 
 Electron-energy-loss spectra and the structural stability of
 nickel oxide: An LSDA+U study.
 http://dx.doi.org/10.1103/PhysRevB.57.1505


 Lippert, G; Hutter, J; Parrinello, M. 
 MOLECULAR PHYSICS, 92 (3), 477-487 (1997). 
 A hybrid Gaussian and plane wave density functional scheme.
 http://dx.doi.org/10.1080/002689797170220


 Dudarev, SL; Manh, DN; Sutton, AP. 
 PHILOSOPHICAL MAGAZINE B, 75 (5), 613-628 (1997). 
 Effect of Mott-Hubbard correlations on the electronic
 structure and structural stability of uranium dioxide.
 http://dx.doi.org/10.1080/13642819708202343


 Perdew, JP; Burke, K; Ernzerhof, M. 
 PHYSICAL REVIEW LETTERS, 77 (18), 3865-3868 (1996). 
 Generalized gradient approximation made simple.
 http://dx.doi.org/10.1103/PhysRevLett.77.3865


 Goedecker, S; Teter, M; Hutter, J. 
 PHYSICAL REVIEW B, 54 (3), 1703-1710 (1996). 
 Separable dual-space Gaussian pseudopotentials.
 http://dx.doi.org/10.1103/PhysRevB.54.1703


 -------------------------------------------------------------------------------
 -                                                                             -
 -                                T I M I N G                                  -
 -                                                                             -
 -------------------------------------------------------------------------------
 SUBROUTINE                       CALLS  ASD         SELF TIME        TOTAL TIME
                                MAXIMUM       AVERAGE  MAXIMUM  AVERAGE  MAXIMUM
 CP2K                                 1  1.0    0.029    0.032  140.956  140.957
 qs_energies                          1  2.0    0.000    0.000  140.613  140.615
 scf_env_do_scf                       1  3.0    0.000    0.000  127.219  127.462
 scf_env_do_scf_inner_loop           13  4.0    0.001    0.002  127.219  127.462
 qs_ks_update_qs_env                 13  5.0    0.001    0.001   64.398   64.517
 rebuild_ks_matrix                   13  6.0    0.000    0.000   64.390   64.509
 qs_ks_build_kohn_sham_matrix        13  7.0    0.230    0.349   64.389   64.509
 qs_rho_update_rho                   14  5.0    0.000    0.000   53.481   53.481
 calculate_rho_elec                  28  6.0   47.306   48.342   53.481   53.481
 sum_up_and_integrate                13  8.0    0.028    0.033   49.425   49.427
 integrate_v_rspace                  26  9.0   44.355   45.432   49.397   49.406
 pw_transfer                        814  9.5    0.036    0.046   17.409   18.019
 fft_wrap_pw1pw2                    788 10.5    0.006    0.007   17.315   17.933
 fft_wrap_pw1pw2_330                302 11.6    0.806    0.979   16.572   17.087
 fft3d_ps                           788 12.5    7.413    8.308   14.556   15.713
 qs_vxc_create                       13  8.0    0.000    0.000   13.675   13.725
 xc_vxc_pw_create                    13  9.0    0.166    0.213   13.675   13.725
 qs_scf_new_mos                      13  5.0    0.001    0.001   10.335   10.552
 eigensolver                         26  6.0    0.001    0.003    9.622    9.628
 qs_energies_init_hamiltonians        1  3.0    0.000    0.000    8.466    8.466
 mp_alltoall_z22v                   788 14.5    6.106    8.118    6.106    8.118
 xc_rho_set_and_dset_create          13 10.0    0.079    0.094    7.271    7.792
 build_core_hamiltonian_matrix        1  4.0    0.000    0.000    7.125    7.699
 cp_fm_syevd                         26  7.0    0.000    0.000    7.572    7.578
 cp_fm_redistribute_end              26  8.0    2.286    7.511    2.299    7.521
 cp_fm_syevd_base                    26  8.0    5.193    7.429    5.193    7.429
 density_rs2pw                       28  7.0    0.002    0.002    5.634    7.131
 rs_pw_transfer                     544  9.4    0.004    0.005    4.908    6.503
 build_core_ppnl                      1  5.0    4.360    4.771    4.360    4.771
 mp_waitany                        5144 11.4    2.634    4.692    2.634    4.692
 yz_to_x                            217 13.1    0.323    0.365    3.515    4.679
 init_scf_run                         1  3.0    0.000    0.000    4.378    4.379
 scf_env_initial_rho_setup            1  4.0    0.000    0.000    4.352    4.352
 x_to_yz                            247 13.9    0.670    0.796    3.580    4.197
 rs_pw_transfer_RS2PW_330            30  8.9    0.454    0.616    2.486    4.077
 potential_pw2rs                     26 10.0    0.004    0.004    3.473    3.482
 rs_distribute_matrix                54  8.4    0.126    0.144    1.712    3.166
 mp_alltoall_d11v                   328  9.2    1.669    3.140    1.669    3.140
 xc_functional_eval                  13 11.0    0.000    0.000    2.371    2.894
 pbe_lsd_eval                        13 12.0    2.371    2.894    2.371    2.894
 -------------------------------------------------------------------------------

 The number of warnings for this run is : 1
 
 -------------------------------------------------------------------------------
  **** **** ******  **  PROGRAM ENDED AT                 2019-08-02 13:04:29.823
 ***** ** ***  *** **   PROGRAM RAN ON            cpn-p28-06.cbls.ccr.buffalo.ed
 **    ****   ******    PROGRAM RAN BY                                  pavankum
 ***** **    ** ** **   PROGRAM PROCESS ID                                 18665
  **** **  *******  **  PROGRAM STOPPED IN /projects/academic/mdupuis2/pavan/VAB
                                           _calculation/results_for_paper/7.TiO2
                                           _pbe_plus_U10/point_0.5_from1
