      77
 i =       41, E =     -1335.6590926369
 Fe        18.3402352172       -0.0000223791       -0.0002187873
 Fe        15.2923541781        0.0000093670        0.0000050296
 Fe        12.2197272877       -0.0002435608        0.0002657800
 Fe         9.1385584985       -0.0000175271       -0.0000004976
 Fe         6.1238405206        0.0178711989       -0.0006150030
 Fe         3.1091088372       -0.0000182798        0.0000029727
 Fe         0.0238607687       -0.0002475919        0.0003379897
  O        18.3186759740        0.0328604906        2.0499644369
  O        18.3186642107       -0.0329315780       -2.0498909827
  O        19.8604422586       -1.1992464805        0.0236586288
  O        19.8601760109        1.1989129751       -0.0234447976
  O        15.2721005796        0.0328095017        2.0507073449
  O        15.2721071548       -0.0328674819       -2.0506291740
  O        16.8141385355       -1.2034493281        0.0250042337
  O        16.8141511024        1.2033105062       -0.0249531440
  O        12.2325620322        0.0305800569        2.0885198808
  O        12.2326562617       -0.0308226762       -2.0881422793
  O        13.7670289537       -1.1987885683        0.0236758257
  O        13.7673618235        1.1984514120       -0.0234696228
  O         9.2286649922       -0.0292363136        2.1069985018
  O         9.2292552659        0.0280275044       -2.1071305070
  O        10.7289888656       -1.1981382337        0.0002100891
  O        10.7308362236        1.1978022798        0.0006236140
  O         6.1266152713        0.0263067115        2.1650852718
  O         6.1266559752        0.0367886566       -2.1650940910
  O         7.7548423350       -1.2446262051       -0.0272444325
  O         7.7706501303        1.2592945541        0.0258452559
  O         3.0159337037       -0.0304355988        2.1049028626
  O         3.0154413854        0.0289204904       -2.1050217608
  O         4.4926110238       -1.2446467664       -0.0272967427
  O         4.4762457594        1.2594181117        0.0258771494
  O        -0.0248107723        0.0296692449        2.0858758459
  O        -0.0247480471       -0.0299396403       -2.0852735447
  O         1.5151334412       -1.1970960361       -0.0068436422
  O         1.5131547200        1.1968195168        0.0079130629
  H        18.3916991560       -0.8504757672       -2.6062048933
  H        18.3614236051        0.7725543513       -2.6263875531
  H        18.3584012491       -0.7723795457        2.6269631173
  H        18.3944696466        0.8505281006        2.6057139248
  H        19.8730837734       -2.1870773166        0.0309556058
  H        19.8732186032        2.1867205734       -0.0308989689
  H        15.1700756726       -0.8503276459       -2.6026080300
  H        15.1870338342        0.7721988247       -2.6231362296
  H        15.1910456406       -0.7720666949        2.6240293095
  H        15.1667850736        0.8503713697        2.6019529049
  H        16.8130614833       -2.1913148515        0.0322772312
  H        16.8130452710        2.1911695347       -0.0322794394
  H        11.9997858618       -0.8428843438       -2.6082162077
  H        12.0546628789        0.7757477968       -2.6376113677
  H        12.0667475991       -0.7772893283        2.6398701772
  H        11.9882490585        0.8403678970        2.6068862657
  H        13.7527479094       -2.1866293944        0.0317218003
  H        13.7526290700        2.1862733894       -0.0314087864
  H         8.9837152583       -0.7708808233       -2.6411525157
  H         9.0313042519        0.8515842746       -2.6233827171
  H         9.0455642084       -0.8551872100        2.6250895049
  H         8.9687913576        0.7662224968        2.6391900941
  H        10.6936379844       -2.1846706508        0.0014215076
  H        10.6952146951        2.1842426470       -0.0009516524
  H         6.1061571610       -0.7761720087       -2.7316928151
  H         6.1071775473        0.8491809603       -2.7327688851
  H         6.1066972565       -0.7780948506        2.7439175167
  H         6.1059195300        0.8471414570        2.7203786933
  H         7.7225628816       -2.2291940511       -0.0322310906
  H         7.7496923504        2.2441805574        0.0315697931
  H         3.2222257732       -0.7726693250       -2.6506206123
  H         3.1794223999        0.8521134535       -2.6329265001
  H         3.1674226501       -0.8552777842        2.6341353228
  H         3.2340855916        0.7687670994        2.6493890077
  H         4.5240707977       -2.2292537096       -0.0319255479
  H         4.4965490257        2.2443237914        0.0311930541
  H         0.1844613446       -0.8417957765       -2.6154613919
  H         0.1122749477        0.7776421675       -2.6448385250
  H         0.1025853288       -0.7786719048        2.6465898837
  H         0.1933454580        0.8398916998        2.6149302471
  H         1.5494062864       -2.1837138533       -0.0056298732
  H         1.5476809490        2.1833459534        0.0061903012
