 DBCSR| Multiplication driver                                               BLAS
 DBCSR| Multrec recursion limit                                              512
 DBCSR| Multiplication stack size                                           1000
 DBCSR| Maximum elements for images                                    UNLIMITED
 DBCSR| Multiplicative factor virtual images                                   1
 DBCSR| Multiplication size stacks                                             3
 DBCSR| Number of 3D layers                                               SINGLE
 DBCSR| Use MPI memory allocation                                              T
 DBCSR| Use RMA algorithm                                                      F
 DBCSR| Use Communication thread                                               T
 DBCSR| Communication thread load                                             87


  **** **** ******  **  PROGRAM STARTED AT               2019-08-09 14:11:48.929
 ***** ** ***  *** **   PROGRAM STARTED ON        cpn-u25-21.cbls.ccr.buffalo.ed
 **    ****   ******    PROGRAM STARTED BY                              pavankum
 ***** **    ** ** **   PROGRAM PROCESS ID                                402181
  **** **  *******  **  PROGRAM STARTED IN /projects/academic/mdupuis2/pavan/VAB
                                           _calculation/results_for_paper/3.1D_F
                                           e_7units/blyp_plusU10/state1_at_point
                                           0_geo

 CP2K| version string:                                          CP2K version 6.1
 CP2K| source code revision number:                                    svn:18464
 CP2K| cp2kflags: libint fftw3 libxc parallel mpi3 scalapack libderiv_max_am1=5 
 CP2K|            libint_max_am=6
 CP2K| is freely available from                            https://www.cp2k.org/
 CP2K| Program compiled at                          Fri Nov 30 14:17:09 EST 2018
 CP2K| Program compiled on                       srv-p22-12.cbls.ccr.buffalo.edu
 CP2K| Program compiled for                                                local
 CP2K| Data directory path    /projects/academic/mdupuis2/pavan/cp2k/cp2k-6.1/da
 CP2K| Input file name                                                 input.inp

 GLOBAL| Force Environment number                                              1
 GLOBAL| Basis set file name            /projects/academic/mdupuis2/pavan/BASIS_
 GLOBAL| Potential file name            /projects/academic/mdupuis2/pavan/POTENT
 GLOBAL| MM Potential file name                                     MM_POTENTIAL
 GLOBAL| Coordinate file name                                           opt0.xyz
 GLOBAL| Method name                                                        CP2K
 GLOBAL| Project name                                                      p_fe_
 GLOBAL| Preferred FFT library                                             FFTW3
 GLOBAL| Preferred diagonalization lib.                                       SL
 GLOBAL| Run type                                                         ENERGY
 GLOBAL| All-to-all communication in single precision                          F
 GLOBAL| FFTs using library dependent lengths                                  T
 GLOBAL| Global print level                                               MEDIUM
 GLOBAL| Total number of message passing processes                            64
 GLOBAL| Number of threads for this process                                    1
 GLOBAL| This output is from process                                           0
 GLOBAL| CPU model name :  Intel(R) Xeon(R) Gold 6130 CPU @ 2.10GHz

 MEMORY| system memory details [Kb]
 MEMORY|                        rank 0           min           max       average
 MEMORY| MemTotal            196307064     196307064     196307064     196307064
 MEMORY| MemFree             189590620     187193672     189590620     188392146
 MEMORY| Buffers                 22496         22496         33704         28100
 MEMORY| Cached                 568520        568520        650372        609446
 MEMORY| Slab                   574228        574228        661012        617620
 MEMORY| SReclaimable           206196        206196        294408        250302
 MEMORY| MemLikelyFree       190387832     188172156     190387832     189279994


 *** Fundamental physical constants (SI units) ***

 *** Literature: B. J. Mohr and B. N. Taylor,
 ***             CODATA recommended values of the fundamental physical
 ***             constants: 2006, Web Version 5.1
 ***             http://physics.nist.gov/constants

 Speed of light in vacuum [m/s]                             2.99792458000000E+08
 Magnetic constant or permeability of vacuum [N/A**2]       1.25663706143592E-06
 Electric constant or permittivity of vacuum [F/m]          8.85418781762039E-12
 Planck constant (h) [J*s]                                  6.62606896000000E-34
 Planck constant (h-bar) [J*s]                              1.05457162825177E-34
 Elementary charge [C]                                      1.60217648700000E-19
 Electron mass [kg]                                         9.10938215000000E-31
 Electron g factor [ ]                                     -2.00231930436220E+00
 Proton mass [kg]                                           1.67262163700000E-27
 Fine-structure constant                                    7.29735253760000E-03
 Rydberg constant [1/m]                                     1.09737315685270E+07
 Avogadro constant [1/mol]                                  6.02214179000000E+23
 Boltzmann constant [J/K]                                   1.38065040000000E-23
 Atomic mass unit [kg]                                      1.66053878200000E-27
 Bohr radius [m]                                            5.29177208590000E-11

 *** Conversion factors ***

 [u] -> [a.u.]                                              1.82288848426455E+03
 [Angstrom] -> [Bohr] = [a.u.]                              1.88972613288564E+00
 [a.u.] = [Bohr] -> [Angstrom]                              5.29177208590000E-01
 [a.u.] -> [s]                                              2.41888432650478E-17
 [a.u.] -> [fs]                                             2.41888432650478E-02
 [a.u.] -> [J]                                              4.35974393937059E-18
 [a.u.] -> [N]                                              8.23872205491840E-08
 [a.u.] -> [K]                                              3.15774647902944E+05
 [a.u.] -> [kJ/mol]                                         2.62549961709828E+03
 [a.u.] -> [kcal/mol]                                       6.27509468713739E+02
 [a.u.] -> [Pa]                                             2.94210107994716E+13
 [a.u.] -> [bar]                                            2.94210107994716E+08
 [a.u.] -> [atm]                                            2.90362800883016E+08
 [a.u.] -> [eV]                                             2.72113838565563E+01
 [a.u.] -> [Hz]                                             6.57968392072181E+15
 [a.u.] -> [1/cm] (wave numbers)                            2.19474631370540E+05
 [a.u./Bohr**2] -> [1/cm]                                   5.14048714338585E+03
 

 CELL_TOP| Volume [angstrom^3]:                                        26196.625
 CELL_TOP| Vector a [angstrom    21.385     0.000     0.000    |a| =      21.385
 CELL_TOP| Vector b [angstrom     0.000    35.000     0.000    |b| =      35.000
 CELL_TOP| Vector c [angstrom     0.000     0.000    35.000    |c| =      35.000
 CELL_TOP| Angle (b,c), alpha [degree]:                                   90.000
 CELL_TOP| Angle (a,c), beta  [degree]:                                   90.000
 CELL_TOP| Angle (a,b), gamma [degree]:                                   90.000
 CELL_TOP| Numerically orthorhombic:                                         YES

 CELL| Volume [angstrom^3]:                                            26196.625
 CELL| Vector a [angstrom]:      21.385     0.000     0.000    |a| =      21.385
 CELL| Vector b [angstrom]:       0.000    35.000     0.000    |b| =      35.000
 CELL| Vector c [angstrom]:       0.000     0.000    35.000    |c| =      35.000
 CELL| Angle (b,c), alpha [degree]:                                       90.000
 CELL| Angle (a,c), beta  [degree]:                                       90.000
 CELL| Angle (a,b), gamma [degree]:                                       90.000
 CELL| Numerically orthorhombic:                                             YES

 CELL_REF| Volume [angstrom^3]:                                        26196.625
 CELL_REF| Vector a [angstrom    21.385     0.000     0.000    |a| =      21.385
 CELL_REF| Vector b [angstrom     0.000    35.000     0.000    |b| =      35.000
 CELL_REF| Vector c [angstrom     0.000     0.000    35.000    |c| =      35.000
 CELL_REF| Angle (b,c), alpha [degree]:                                   90.000
 CELL_REF| Angle (a,c), beta  [degree]:                                   90.000
 CELL_REF| Angle (a,b), gamma [degree]:                                   90.000
 CELL_REF| Numerically orthorhombic:                                         YES

 *******************************************************************************
 *******************************************************************************
 **                                                                           **
 **     #####                         ##              ##                      **
 **    ##   ##            ##          ##              ##                      **
 **   ##     ##                       ##            ######                    **
 **   ##     ##  ##   ##  ##   #####  ##  ##   ####   ##    #####    #####    **
 **   ##     ##  ##   ##  ##  ##      ## ##   ##      ##   ##   ##  ##   ##   **
 **   ##  ## ##  ##   ##  ##  ##      ####     ###    ##   ######   ######    **
 **    ##  ###   ##   ##  ##  ##      ## ##      ##   ##   ##       ##        **
 **     #######   #####   ##   #####  ##  ##  ####    ##    #####   ##        **
 **           ##                                                    ##        **
 **                                                                           **
 **                                                ... make the atoms dance   **
 **                                                                           **
 **            Copyright (C) by CP2K developers group (2000 - 2018)           **
 **                                                                           **
 *******************************************************************************

 DFT| Spin unrestricted (spin-polarized) Kohn-Sham calculation               UKS
 DFT| Multiplicity                                                            35
 DFT| Number of spin states                                                    2
 DFT| Charge                                                                   6
 DFT| Self-interaction correction (SIC)                                       NO
 DFT| Cutoffs: density                                              1.000000E-10
 DFT|          gradient                                             1.000000E-10
 DFT|          tau                                                  1.000000E-10
 DFT|          cutoff_smoothing_range                               0.000000E+00
 DFT| XC density smoothing                                                  NONE
 DFT| XC derivatives                                                          PW

 DFT+U| Method                                                          MULLIKEN
 DFT+U| Check atomic kind information for details
 FUNCTIONAL| ROUTINE=NEW
 FUNCTIONAL| BECKE88:
 FUNCTIONAL| A. Becke, Phys. Rev. A 38, 3098 (1988) {LSD version}               
 FUNCTIONAL| LYP:
 FUNCTIONAL| C. Lee, W. Yang, R.G. Parr, Phys. Rev. B, 37, 785 (1988) {LSD versi
 FUNCTIONAL| on}                                                                

 QS| Method:                                                                 GPW
 QS| Density plane wave grid type                        NON-SPHERICAL FULLSPACE
 QS| Number of grid levels:                                                   10
 QS| Density cutoff [a.u.]:                                                325.0
 QS| Multi grid cutoff [a.u.]: 1) grid level                               325.0
 QS|                           2) grid level                               108.3
 QS|                           3) grid level                                36.1
 QS|                           4) grid level                                12.0
 QS|                           5) grid level                                 4.0
 QS|                           6) grid level                                 1.3
 QS|                           7) grid level                                 0.4
 QS|                           8) grid level                                 0.1
 QS|                           9) grid level                                 0.0
 QS|                          10) grid level                                 0.0
 QS| Grid level progression factor:                                          3.0
 QS| Relative density cutoff [a.u.]:                                        30.0
 QS| Consistent realspace mapping and integration 
 QS| Interaction thresholds: eps_pgf_orb:                                1.0E-10
 QS|                         eps_filter_matrix:                          0.0E+00
 QS|                         eps_core_charge:                            1.0E-14
 QS|                         eps_rho_gspace:                             1.0E-12
 QS|                         eps_rho_rspace:                             1.0E-12
 QS|                         eps_gvg_rspace:                             1.0E-06
 QS|                         eps_ppl:                                    1.0E-02
 QS|                         eps_ppnl:                                   1.0E-08


 ATOMIC KIND INFORMATION

  1. Atomic kind: Fe                                    Number of atoms:       7

     Orbital Basis Set                                                   mod-DZV

       Number of orbital shell sets:                                           1
       Number of orbital shells:                                               7
       Number of primitive Cartesian functions:                                6
       Number of Cartesian basis functions:                                   21
       Number of spherical basis functions:                                   19
       Norm type:                                                              2

       Normalised Cartesian orbitals:

                        Set   Shell   Orbital            Exponent    Coefficient

                          1       1    2s                8.424366      -0.545589
                                                         4.825220      -0.832336
                                                         2.198939       0.958990
                                                         0.891661       0.416271
                                                         0.316231       0.012631
                                                         0.103474      -0.013505

                          1       2    3s                8.424366      -0.106056
                                                         4.825220      -0.104587
                                                         2.198939       0.052318
                                                         0.891661      -0.169042
                                                         0.316231       0.061854
                                                         0.103474       0.122891

                          1       3    4s                8.424366      -0.333477
                                                         4.825220      -0.289267
                                                         2.198939      -0.125861
                                                         0.891661      -1.004000
                                                         0.316231       0.780774
                                                         0.103474      -0.187846

                          1       4    3px               8.424366      -1.658234
                                                         4.825220       1.618912
                                                         2.198939       1.969078
                                                         0.891661       0.523780
                                                         0.316231       0.024574
                                                         0.103474      -0.000798
                          1       4    3py               8.424366      -1.658234
                                                         4.825220       1.618912
                                                         2.198939       1.969078
                                                         0.891661       0.523780
                                                         0.316231       0.024574
                                                         0.103474      -0.000798
                          1       4    3pz               8.424366      -1.658234
                                                         4.825220       1.618912
                                                         2.198939       1.969078
                                                         0.891661       0.523780
                                                         0.316231       0.024574
                                                         0.103474      -0.000798

                          1       5    4px               8.424366      -0.105249
                                                         4.825220      -0.126123
                                                         2.198939      -0.349657
                                                         0.891661      -0.133470
                                                         0.316231       0.170554
                                                         0.103474       0.054381
                          1       5    4py               8.424366      -0.105249
                                                         4.825220      -0.126123
                                                         2.198939      -0.349657
                                                         0.891661      -0.133470
                                                         0.316231       0.170554
                                                         0.103474       0.054381
                          1       5    4pz               8.424366      -0.105249
                                                         4.825220      -0.126123
                                                         2.198939      -0.349657
                                                         0.891661      -0.133470
                                                         0.316231       0.170554
                                                         0.103474       0.054381

                          1       6    4dx2              8.424366       7.918298
                                                         4.825220       5.112663
                                                         2.198939       2.118663
                                                         0.891661       0.465004
                                                         0.316231       0.065856
                                                         0.103474       0.002769
                          1       6    4dxy              8.424366      13.714895
                                                         4.825220       8.855393
                                                         2.198939       3.669632
                                                         0.891661       0.805411
                                                         0.316231       0.114066
                                                         0.103474       0.004796
                          1       6    4dxz              8.424366      13.714895
                                                         4.825220       8.855393
                                                         2.198939       3.669632
                                                         0.891661       0.805411
                                                         0.316231       0.114066
                                                         0.103474       0.004796
                          1       6    4dy2              8.424366       7.918298
                                                         4.825220       5.112663
                                                         2.198939       2.118663
                                                         0.891661       0.465004
                                                         0.316231       0.065856
                                                         0.103474       0.002769
                          1       6    4dyz              8.424366      13.714895
                                                         4.825220       8.855393
                                                         2.198939       3.669632
                                                         0.891661       0.805411
                                                         0.316231       0.114066
                                                         0.103474       0.004796
                          1       6    4dz2              8.424366       7.918298
                                                         4.825220       5.112663
                                                         2.198939       2.118663
                                                         0.891661       0.465004
                                                         0.316231       0.065856
                                                         0.103474       0.002769

                          1       7    5dx2              8.424366      -4.223614
                                                         4.825220      -1.970584
                                                         2.198939      -1.543490
                                                         0.891661      -0.041381
                                                         0.316231       0.082821
                                                         0.103474       0.021964
                          1       7    5dxy              8.424366      -7.315513
                                                         4.825220      -3.413151
                                                         2.198939      -2.673404
                                                         0.891661      -0.071673
                                                         0.316231       0.143450
                                                         0.103474       0.038042
                          1       7    5dxz              8.424366      -7.315513
                                                         4.825220      -3.413151
                                                         2.198939      -2.673404
                                                         0.891661      -0.071673
                                                         0.316231       0.143450
                                                         0.103474       0.038042
                          1       7    5dy2              8.424366      -4.223614
                                                         4.825220      -1.970584
                                                         2.198939      -1.543490
                                                         0.891661      -0.041381
                                                         0.316231       0.082821
                                                         0.103474       0.021964
                          1       7    5dyz              8.424366      -7.315513
                                                         4.825220      -3.413151
                                                         2.198939      -2.673404
                                                         0.891661      -0.071673
                                                         0.316231       0.143450
                                                         0.103474       0.038042
                          1       7    5dz2              8.424366      -4.223614
                                                         4.825220      -1.970584
                                                         2.198939      -1.543490
                                                         0.891661      -0.041381
                                                         0.316231       0.082821
                                                         0.103474       0.021964

     GTH Potential information for                                  GTH-BLYP-q16

       Description:                       Goedecker-Teter-Hutter pseudopotential
                                           Goedecker et al., PRB 54, 1703 (1996)
                                          Hartwigsen et al., PRB 58, 3641 (1998)
                                                      Krack, TCA 114, 145 (2005)

       Gaussian exponent of the core charge distribution:               3.858025
       Electronic configuration (s p d ...):                           4   6   6

       Parameters of the local part of the GTH pseudopotential:

                          rloc        C1          C2          C3          C4
                        0.360000    7.011025   -0.222747

       Parameters of the non-local part of the GTH pseudopotential:

                   l      r(l)      h(i,j,l)

                   0    0.276205    0.611496    7.992357
                                    7.992357  -10.318089
                   1    0.247130   -8.710556    8.684169
                                    8.684169  -10.275248
                   2    0.223534  -12.411504

     A DFT+U correction is applied to atoms of this atomic kind:
       Angular quantum momentum number L:                                      2
       U(eff) = (U - J) value in [eV]:                                    10.000

  2. Atomic kind: O                                     Number of atoms:      28

     Orbital Basis Set                                                   mod-DZV

       Number of orbital shell sets:                                           1
       Number of orbital shells:                                               4
       Number of primitive Cartesian functions:                                5
       Number of Cartesian basis functions:                                    8
       Number of spherical basis functions:                                    8
       Norm type:                                                              2

       Normalised Cartesian orbitals:

                        Set   Shell   Orbital            Exponent    Coefficient

                          1       1    2s               10.389228       0.396646
                                                         3.849621       0.208811
                                                         1.388401      -0.301641
                                                         0.496955      -0.274061
                                                         0.162492      -0.033677

                          1       2    3s               10.389228       0.303673
                                                         3.849621       0.240943
                                                         1.388401      -0.313066
                                                         0.496955      -0.043055
                                                         0.162492       0.213991

                          1       3    3px              10.389228      -1.530415
                                                         3.849621      -1.371928
                                                         1.388401      -0.761951
                                                         0.496955      -0.253695
                                                         0.162492      -0.035541
                          1       3    3py              10.389228      -1.530415
                                                         3.849621      -1.371928
                                                         1.388401      -0.761951
                                                         0.496955      -0.253695
                                                         0.162492      -0.035541
                          1       3    3pz              10.389228      -1.530415
                                                         3.849621      -1.371928
                                                         1.388401      -0.761951
                                                         0.496955      -0.253695
                                                         0.162492      -0.035541

                          1       4    4px              10.389228      -0.565392
                                                         3.849621      -0.038231
                                                         1.388401      -0.382373
                                                         0.496955       0.179070
                                                         0.162492       0.122714
                          1       4    4py              10.389228      -0.565392
                                                         3.849621      -0.038231
                                                         1.388401      -0.382373
                                                         0.496955       0.179070
                                                         0.162492       0.122714
                          1       4    4pz              10.389228      -0.565392
                                                         3.849621      -0.038231
                                                         1.388401      -0.382373
                                                         0.496955       0.179070
                                                         0.162492       0.122714

     GTH Potential information for                                   GTH-BLYP-q6

       Description:                       Goedecker-Teter-Hutter pseudopotential
                                           Goedecker et al., PRB 54, 1703 (1996)
                                          Hartwigsen et al., PRB 58, 3641 (1998)
                                                      Krack, TCA 114, 145 (2005)

       Gaussian exponent of the core charge distribution:               8.438331
       Electronic configuration (s p d ...):                               2   4

       Parameters of the local part of the GTH pseudopotential:

                          rloc        C1          C2          C3          C4
                        0.243420  -16.991892    2.566142

       Parameters of the non-local part of the GTH pseudopotential:

                   l      r(l)      h(i,j,l)

                   0    0.220831   18.388851
                   1    0.217201

  3. Atomic kind: H                                     Number of atoms:      42

     Orbital Basis Set                                                   mod-DZV

       Number of orbital shell sets:                                           1
       Number of orbital shells:                                               2
       Number of primitive Cartesian functions:                                5
       Number of Cartesian basis functions:                                    2
       Number of spherical basis functions:                                    2
       Norm type:                                                              2

       Normalised Cartesian orbitals:

                        Set   Shell   Orbital            Exponent    Coefficient

                          1       1    2s               10.068468      -0.133023
                                                         2.680223      -0.177618
                                                         0.791502      -0.258419
                                                         0.239116      -0.107525
                                                         0.082193      -0.014019

                          1       2    3s               10.068468       0.344673
                                                         2.680223       1.819821
                                                         0.791502      -0.999069
                                                         0.239116       0.017430
                                                         0.082193       0.082660

     GTH Potential information for                                   GTH-BLYP-q1

       Description:                       Goedecker-Teter-Hutter pseudopotential
                                           Goedecker et al., PRB 54, 1703 (1996)
                                          Hartwigsen et al., PRB 58, 3641 (1998)
                                                      Krack, TCA 114, 145 (2005)

       Gaussian exponent of the core charge distribution:              12.500000
       Electronic configuration (s p d ...):                                   1

       Parameters of the local part of the GTH pseudopotential:

                          rloc        C1          C2          C3          C4
                        0.200000   -4.195961    0.730498


 MOLECULE KIND INFORMATION


 All atoms are their own molecule, skipping detailed information


 TOTAL NUMBERS AND MAXIMUM NUMBERS

  Total number of            - Atomic kinds:                                   3
                             - Atoms:                                         77
                             - Shell sets:                                    77
                             - Shells:                                       245
                             - Primitive Cartesian functions:                392
                             - Cartesian basis functions:                    455
                             - Spherical basis functions:                    441

  Maximum angular momentum of- Orbital basis functions:                        2
                             - Local part of the GTH pseudopotential:          2
                             - Non-local part of the GTH pseudopotential:      3


 MODULE QUICKSTEP:  ATOMIC COORDINATES IN angstrom

  Atom  Kind  Element       X           Y           Z          Z(eff)       Mass

       1     1 Fe  26   18.340235   -0.000022   -0.000219     16.00      55.8450
       2     1 Fe  26   15.292354    0.000009    0.000005     16.00      55.8450
       3     1 Fe  26   12.219727   -0.000244    0.000266     16.00      55.8450
       4     1 Fe  26    9.138558   -0.000018   -0.000000     16.00      55.8450
       5     1 Fe  26    6.123841    0.017871   -0.000615     16.00      55.8450
       6     1 Fe  26    3.109109   -0.000018    0.000003     16.00      55.8450
       7     1 Fe  26    0.023861   -0.000248    0.000338     16.00      55.8450
       8     2 O    8   18.318676    0.032860    2.049964      6.00      15.9994
       9     2 O    8   18.318664   -0.032932   -2.049891      6.00      15.9994
      10     2 O    8   19.860442   -1.199246    0.023659      6.00      15.9994
      11     2 O    8   19.860176    1.198913   -0.023445      6.00      15.9994
      12     2 O    8   15.272101    0.032810    2.050707      6.00      15.9994
      13     2 O    8   15.272107   -0.032867   -2.050629      6.00      15.9994
      14     2 O    8   16.814139   -1.203449    0.025004      6.00      15.9994
      15     2 O    8   16.814151    1.203311   -0.024953      6.00      15.9994
      16     2 O    8   12.232562    0.030580    2.088520      6.00      15.9994
      17     2 O    8   12.232656   -0.030823   -2.088142      6.00      15.9994
      18     2 O    8   13.767029   -1.198789    0.023676      6.00      15.9994
      19     2 O    8   13.767362    1.198451   -0.023470      6.00      15.9994
      20     2 O    8    9.228665   -0.029236    2.106999      6.00      15.9994
      21     2 O    8    9.229255    0.028028   -2.107131      6.00      15.9994
      22     2 O    8   10.728989   -1.198138    0.000210      6.00      15.9994
      23     2 O    8   10.730836    1.197802    0.000624      6.00      15.9994
      24     2 O    8    6.126615    0.026307    2.165085      6.00      15.9994
      25     2 O    8    6.126656    0.036789   -2.165094      6.00      15.9994
      26     2 O    8    7.754842   -1.244626   -0.027244      6.00      15.9994
      27     2 O    8    7.770650    1.259295    0.025845      6.00      15.9994
      28     2 O    8    3.015934   -0.030436    2.104903      6.00      15.9994
      29     2 O    8    3.015441    0.028920   -2.105022      6.00      15.9994
      30     2 O    8    4.492611   -1.244647   -0.027297      6.00      15.9994
      31     2 O    8    4.476246    1.259418    0.025877      6.00      15.9994
      32     2 O    8   -0.024811    0.029669    2.085876      6.00      15.9994
      33     2 O    8   -0.024748   -0.029940   -2.085274      6.00      15.9994
      34     2 O    8    1.515133   -1.197096   -0.006844      6.00      15.9994
      35     2 O    8    1.513155    1.196820    0.007913      6.00      15.9994
      36     3 H    1   18.391699   -0.850476   -2.606205      1.00       1.0079
      37     3 H    1   18.361424    0.772554   -2.626388      1.00       1.0079
      38     3 H    1   18.358401   -0.772380    2.626963      1.00       1.0079
      39     3 H    1   18.394470    0.850528    2.605714      1.00       1.0079
      40     3 H    1   19.873084   -2.187077    0.030956      1.00       1.0079
      41     3 H    1   19.873219    2.186721   -0.030899      1.00       1.0079
      42     3 H    1   15.170076   -0.850328   -2.602608      1.00       1.0079
      43     3 H    1   15.187034    0.772199   -2.623136      1.00       1.0079
      44     3 H    1   15.191046   -0.772067    2.624029      1.00       1.0079
      45     3 H    1   15.166785    0.850371    2.601953      1.00       1.0079
      46     3 H    1   16.813061   -2.191315    0.032277      1.00       1.0079
      47     3 H    1   16.813045    2.191170   -0.032279      1.00       1.0079
      48     3 H    1   11.999786   -0.842884   -2.608216      1.00       1.0079
      49     3 H    1   12.054663    0.775748   -2.637611      1.00       1.0079
      50     3 H    1   12.066748   -0.777289    2.639870      1.00       1.0079
      51     3 H    1   11.988249    0.840368    2.606886      1.00       1.0079
      52     3 H    1   13.752748   -2.186629    0.031722      1.00       1.0079
      53     3 H    1   13.752629    2.186273   -0.031409      1.00       1.0079
      54     3 H    1    8.983715   -0.770881   -2.641153      1.00       1.0079
      55     3 H    1    9.031304    0.851584   -2.623383      1.00       1.0079
      56     3 H    1    9.045564   -0.855187    2.625090      1.00       1.0079
      57     3 H    1    8.968791    0.766222    2.639190      1.00       1.0079
      58     3 H    1   10.693638   -2.184671    0.001422      1.00       1.0079
      59     3 H    1   10.695215    2.184243   -0.000952      1.00       1.0079
      60     3 H    1    6.106157   -0.776172   -2.731693      1.00       1.0079
      61     3 H    1    6.107178    0.849181   -2.732769      1.00       1.0079
      62     3 H    1    6.106697   -0.778095    2.743918      1.00       1.0079
      63     3 H    1    6.105920    0.847141    2.720379      1.00       1.0079
      64     3 H    1    7.722563   -2.229194   -0.032231      1.00       1.0079
      65     3 H    1    7.749692    2.244181    0.031570      1.00       1.0079
      66     3 H    1    3.222226   -0.772669   -2.650621      1.00       1.0079
      67     3 H    1    3.179422    0.852113   -2.632927      1.00       1.0079
      68     3 H    1    3.167423   -0.855278    2.634135      1.00       1.0079
      69     3 H    1    3.234086    0.768767    2.649389      1.00       1.0079
      70     3 H    1    4.524071   -2.229254   -0.031926      1.00       1.0079
      71     3 H    1    4.496549    2.244324    0.031193      1.00       1.0079
      72     3 H    1    0.184461   -0.841796   -2.615461      1.00       1.0079
      73     3 H    1    0.112275    0.777642   -2.644839      1.00       1.0079
      74     3 H    1    0.102585   -0.778672    2.646590      1.00       1.0079
      75     3 H    1    0.193345    0.839892    2.614930      1.00       1.0079
      76     3 H    1    1.549406   -2.183714   -0.005630      1.00       1.0079
      77     3 H    1    1.547681    2.183346    0.006190      1.00       1.0079




 SCF PARAMETERS         Density guess:                                   RESTART
                        --------------------------------------------------------
                        max_scf:                                            1000
                        max_scf_history:                                       0
                        max_diis:                                              4
                        --------------------------------------------------------
                        eps_scf:                                        1.00E-06
                        eps_scf_history:                                0.00E+00
                        eps_diis:                                       1.00E-01
                        eps_eigval:                                     1.00E-05
                        --------------------------------------------------------
                        level_shift [a.u.]:                                 0.00
                        --------------------------------------------------------
                        Outer loop SCF in use 
                        No variables optimised in outer loop
                        eps_scf                                         1.00E-06
                        max_scf                                              500
                        No outer loop optimization
                        step_size                                       5.00E-01

 PW_GRID| Information for grid number                                          1
 PW_GRID| Grid distributed over                                    64 processors
 PW_GRID| Real space group dimensions                                    64    1
 PW_GRID| the grid is blocked:                                                NO
 PW_GRID| Cutoff [a.u.]                                                    325.0
 PW_GRID| spherical cutoff:                                                   NO
 PW_GRID|   Bounds   1           -165     164                Points:         330
 PW_GRID|   Bounds   2           -270     269                Points:         540
 PW_GRID|   Bounds   3           -270     269                Points:         540
 PW_GRID| Volume element (a.u.^3)  0.1837E-02     Volume (a.u.^3)    176783.5904
 PW_GRID| Grid span                                                    FULLSPACE
 PW_GRID|   Distribution                         Average         Max         Min
 PW_GRID|   G-Vectors                          1503562.5     1503810     1503480
 PW_GRID|   G-Rays                                4556.2        4557        4556
 PW_GRID|   Real Space Points                  1503562.5     1749600     1458000

 PW_GRID| Information for grid number                                          2
 PW_GRID| Grid distributed over                                    64 processors
 PW_GRID| Real space group dimensions                                    64    1
 PW_GRID| the grid is blocked:                                                NO
 PW_GRID| Cutoff [a.u.]                                                    108.3
 PW_GRID| spherical cutoff:                                                   NO
 PW_GRID|   Bounds   1            -94      94                Points:         189
 PW_GRID|   Bounds   2           -157     157                Points:         315
 PW_GRID|   Bounds   3           -157     157                Points:         315
 PW_GRID| Volume element (a.u.^3)  0.9427E-02     Volume (a.u.^3)    176783.5904
 PW_GRID| Grid span                                                    FULLSPACE
 PW_GRID|   Distribution                         Average         Max         Min
 PW_GRID|   G-Vectors                           293023.8      293895      292194
 PW_GRID|   G-Rays                                1550.4        1555        1546
 PW_GRID|   Real Space Points                   293023.8      297675      198450

 PW_GRID| Information for grid number                                          3
 PW_GRID| Grid distributed over                                    64 processors
 PW_GRID| Real space group dimensions                                    64    1
 PW_GRID| the grid is blocked:                                                NO
 PW_GRID| Cutoff [a.u.]                                                     36.1
 PW_GRID| spherical cutoff:                                                   NO
 PW_GRID|   Bounds   1            -55      54                Points:         110
 PW_GRID|   Bounds   2            -90      89                Points:         180
 PW_GRID|   Bounds   3            -90      89                Points:         180
 PW_GRID| Volume element (a.u.^3)  0.4960E-01     Volume (a.u.^3)    176783.5904
 PW_GRID| Grid span                                                    FULLSPACE
 PW_GRID|   Distribution                         Average         Max         Min
 PW_GRID|   G-Vectors                            55687.5       55880       55440
 PW_GRID|   G-Rays                                 506.2         508         504
 PW_GRID|   Real Space Points                    55687.5       64800       32400

 PW_GRID| Information for grid number                                          4
 PW_GRID| Grid distributed over                                    64 processors
 PW_GRID| Real space group dimensions                                     8    8
 PW_GRID| the grid is blocked:                                                NO
 PW_GRID| Cutoff [a.u.]                                                     12.0
 PW_GRID| spherical cutoff:                                                   NO
 PW_GRID|   Bounds   1            -31      31                Points:          63
 PW_GRID|   Bounds   2            -52      52                Points:         105
 PW_GRID|   Bounds   3            -52      52                Points:         105
 PW_GRID| Volume element (a.u.^3)  0.2545         Volume (a.u.^3)    176783.5904
 PW_GRID| Grid span                                                    FULLSPACE
 PW_GRID|   Distribution                         Average         Max         Min
 PW_GRID|   G-Vectors                            10852.7       10899       10773
 PW_GRID|   G-Rays                                 172.3         173         171
 PW_GRID|   Real Space Points                    10852.7       11760        9555

 PW_GRID| Information for grid number                                          5
 PW_GRID| Grid distributed over                                    64 processors
 PW_GRID| Real space group dimensions                                     8    8
 PW_GRID| the grid is blocked:                                                NO
 PW_GRID| Cutoff [a.u.]                                                      4.0
 PW_GRID| spherical cutoff:                                                   NO
 PW_GRID|   Bounds   1            -20      19                Points:          40
 PW_GRID|   Bounds   2            -30      29                Points:          60
 PW_GRID|   Bounds   3            -30      29                Points:          60
 PW_GRID| Volume element (a.u.^3)   1.228         Volume (a.u.^3)    176783.5904
 PW_GRID| Grid span                                                    FULLSPACE
 PW_GRID|   Distribution                         Average         Max         Min
 PW_GRID|   G-Vectors                             2250.0        2360        2160
 PW_GRID|   G-Rays                                  56.2          59          54
 PW_GRID|   Real Space Points                     2250.0        2400        2100

 PW_GRID| Information for grid number                                          6
 PW_GRID| Grid distributed over                                    64 processors
 PW_GRID| Real space group dimensions                                     8    8
 PW_GRID| the grid is blocked:                                                NO
 PW_GRID| Cutoff [a.u.]                                                      1.3
 PW_GRID| spherical cutoff:                                                   NO
 PW_GRID|   Bounds   1            -10      10                Points:          21
 PW_GRID|   Bounds   2            -17      17                Points:          35
 PW_GRID|   Bounds   3            -17      17                Points:          35
 PW_GRID| Volume element (a.u.^3)   6.872         Volume (a.u.^3)    176783.5904
 PW_GRID| Grid span                                                    FULLSPACE
 PW_GRID|   Distribution                         Average         Max         Min
 PW_GRID|   G-Vectors                              402.0         462         357
 PW_GRID|   G-Rays                                  19.1          22          17
 PW_GRID|   Real Space Points                      402.0         525         280

 PW_GRID| Information for grid number                                          7
 PW_GRID| Grid distributed over                                    64 processors
 PW_GRID| Real space group dimensions                                     8    8
 PW_GRID| the grid is blocked:                                                NO
 PW_GRID| Cutoff [a.u.]                                                      0.4
 PW_GRID| spherical cutoff:                                                   NO
 PW_GRID|   Bounds   1             -7       6                Points:          14
 PW_GRID|   Bounds   2            -10       9                Points:          20
 PW_GRID|   Bounds   3            -10       9                Points:          20
 PW_GRID| Volume element (a.u.^3)   31.57         Volume (a.u.^3)    176783.5904
 PW_GRID| Grid span                                                    FULLSPACE
 PW_GRID|   Distribution                         Average         Max         Min
 PW_GRID|   G-Vectors                               87.5          98          70
 PW_GRID|   G-Rays                                   6.2           7           5
 PW_GRID|   Real Space Points                       87.5         120          40

 PW_GRID| Information for grid number                                          8
 PW_GRID| Grid distributed over                                    64 processors
 PW_GRID| Real space group dimensions                                     8    8
 PW_GRID| the grid is blocked:                                                NO
 PW_GRID| Cutoff [a.u.]                                                      0.1
 PW_GRID| spherical cutoff:                                                   NO
 PW_GRID|   Bounds   1             -3       3                Points:           7
 PW_GRID|   Bounds   2             -5       5                Points:          11
 PW_GRID|   Bounds   3             -5       5                Points:          11
 PW_GRID| Volume element (a.u.^3)   208.7         Volume (a.u.^3)    176783.5904
 PW_GRID| Grid span                                                    FULLSPACE
 PW_GRID|   Distribution                         Average         Max         Min
 PW_GRID|   G-Vectors                               13.2          21           7
 PW_GRID|   G-Rays                                   1.9           3           1
 PW_GRID|   Real Space Points                       13.2          22           0

 PW_GRID| Information for grid number                                          9
 PW_GRID| Grid distributed over                                    64 processors
 PW_GRID| Real space group dimensions                                     8    8
 PW_GRID| the grid is blocked:                                                NO
 PW_GRID| Cutoff [a.u.]                                                      0.0
 PW_GRID| spherical cutoff:                                                   NO
 PW_GRID|   Bounds   1             -2       2                Points:           5
 PW_GRID|   Bounds   2             -3       3                Points:           7
 PW_GRID|   Bounds   3             -3       3                Points:           7
 PW_GRID| Volume element (a.u.^3)   721.6         Volume (a.u.^3)    176783.5904
 PW_GRID| Grid span                                                    FULLSPACE
 PW_GRID|   Distribution                         Average         Max         Min
 PW_GRID|   G-Vectors                                3.8          10           0
 PW_GRID|   G-Rays                                   0.8           2           0
 PW_GRID|   Real Space Points                        3.8           7           0

 PW_GRID| Information for grid number                                         10
 PW_GRID| Grid distributed over                                    64 processors
 PW_GRID| Real space group dimensions                                     8    8
 PW_GRID| the grid is blocked:                                                NO
 PW_GRID| Cutoff [a.u.]                                                      0.0
 PW_GRID| spherical cutoff:                                                   NO
 PW_GRID|   Bounds   1             -1       1                Points:           3
 PW_GRID|   Bounds   2             -1       1                Points:           3
 PW_GRID|   Bounds   3             -1       1                Points:           3
 PW_GRID| Volume element (a.u.^3)   6548.         Volume (a.u.^3)    176783.5904
 PW_GRID| Grid span                                                    FULLSPACE
 PW_GRID|   Distribution                         Average         Max         Min
 PW_GRID|   G-Vectors                                0.4           3           0
 PW_GRID|   G-Rays                                   0.1           1           0
 PW_GRID|   Real Space Points                        0.4           3           0

 POISSON| Solver                                                        PERIODIC
 POISSON| Periodicity                                                        XYZ

 RS_GRID| Information for grid number                                          1
 RS_GRID|   Bounds   1           -165     164                Points:         330
 RS_GRID|   Bounds   2           -270     269                Points:         540
 RS_GRID|   Bounds   3           -270     269                Points:         540
 RS_GRID| Real space distribution over                                  8 groups
 RS_GRID| Real space distribution along direction                              2
 RS_GRID| Border size                                                         25
 RS_GRID| Real space distribution over                                  8 groups
 RS_GRID| Real space distribution along direction                              3
 RS_GRID| Border size                                                         25
 RS_GRID|   Distribution                         Average         Max         Min
 RS_GRID|   Planes                                 117.5         118         117
 RS_GRID|   Distribution                         Average         Max         Min
 RS_GRID|   Planes                                 117.5         118         117

 RS_GRID| Information for grid number                                          2
 RS_GRID|   Bounds   1            -94      94                Points:         189
 RS_GRID|   Bounds   2           -157     157                Points:         315
 RS_GRID|   Bounds   3           -157     157                Points:         315
 RS_GRID| Real space distribution over                                  8 groups
 RS_GRID| Real space distribution along direction                              2
 RS_GRID| Border size                                                         28
 RS_GRID| Real space distribution over                                  8 groups
 RS_GRID| Real space distribution along direction                              3
 RS_GRID| Border size                                                         28
 RS_GRID|   Distribution                         Average         Max         Min
 RS_GRID|   Planes                                  95.4          96          95
 RS_GRID|   Distribution                         Average         Max         Min
 RS_GRID|   Planes                                  95.4          96          95

 RS_GRID| Information for grid number                                          3
 RS_GRID|   Bounds   1            -55      54                Points:         110
 RS_GRID|   Bounds   2            -90      89                Points:         180
 RS_GRID|   Bounds   3            -90      89                Points:         180
 RS_GRID| Real space fully replicated
 RS_GRID| Group size                                                           1

 RS_GRID| Information for grid number                                          4
 RS_GRID|   Bounds   1            -31      31                Points:          63
 RS_GRID|   Bounds   2            -52      52                Points:         105
 RS_GRID|   Bounds   3            -52      52                Points:         105
 RS_GRID| Real space fully replicated
 RS_GRID| Group size                                                           1

 RS_GRID| Information for grid number                                          5
 RS_GRID|   Bounds   1            -20      19                Points:          40
 RS_GRID|   Bounds   2            -30      29                Points:          60
 RS_GRID|   Bounds   3            -30      29                Points:          60
 RS_GRID| Real space fully replicated
 RS_GRID| Group size                                                           1

 RS_GRID| Information for grid number                                          6
 RS_GRID|   Bounds   1            -10      10                Points:          21
 RS_GRID|   Bounds   2            -17      17                Points:          35
 RS_GRID|   Bounds   3            -17      17                Points:          35
 RS_GRID| Real space fully replicated
 RS_GRID| Group size                                                           1

 RS_GRID| Information for grid number                                          7
 RS_GRID|   Bounds   1             -7       6                Points:          14
 RS_GRID|   Bounds   2            -10       9                Points:          20
 RS_GRID|   Bounds   3            -10       9                Points:          20
 RS_GRID| Real space fully replicated
 RS_GRID| Group size                                                           1

 RS_GRID| Information for grid number                                          8
 RS_GRID|   Bounds   1             -3       3                Points:           7
 RS_GRID|   Bounds   2             -5       5                Points:          11
 RS_GRID|   Bounds   3             -5       5                Points:          11
 RS_GRID| Real space fully replicated
 RS_GRID| Group size                                                           1

 RS_GRID| Information for grid number                                          9
 RS_GRID|   Bounds   1             -2       2                Points:           5
 RS_GRID|   Bounds   2             -3       3                Points:           7
 RS_GRID|   Bounds   3             -3       3                Points:           7
 RS_GRID| Real space fully replicated
 RS_GRID| Group size                                                           1

 RS_GRID| Information for grid number                                         10
 RS_GRID|   Bounds   1             -1       1                Points:           3
 RS_GRID|   Bounds   2             -1       1                Points:           3
 RS_GRID|   Bounds   3             -1       1                Points:           3
 RS_GRID| Real space fully replicated
 RS_GRID| Group size                                                           1

 Spin 1

 Number of electrons:                                                        175
 Number of occupied orbitals:                                                175
 Number of molecular orbitals:                                               175

 Spin 2

 Number of electrons:                                                        141
 Number of occupied orbitals:                                                141
 Number of molecular orbitals:                                               141

 Number of orbital functions:                                                441
 Number of independent orbital functions:                                    441

 Extrapolation method: initial_guess


 SCF WAVEFUNCTION OPTIMIZATION

  ----------------------------------- OT ---------------------------------------
  Minimizer      : CG                  : conjugate gradient
  Preconditioner : FULL_KINETIC        : inversion of T + eS
  Precond_solver : DEFAULT
  Line search    : 2PNT                : 2 energies, one gradient
  stepsize       :    0.15000000                  energy_gap     :    0.20000000
  eps_taylor     :   0.10000E-15                  max_taylor     :             4
  ----------------------------------- OT ---------------------------------------

  Step     Update method      Time    Convergence         Total energy    Change
  ------------------------------------------------------------------------------

 *** WARNING in dft_plus_u.F:1457 :: DFT+U energy contibution is negative ***
 *** possibly due to unphysical Mulliken charges. Check your input, if    ***
 *** this warning persists or try a different method!                     ***

     1 OT CG       0.15E+00    6.4     0.00115298     -1335.4938350870 -1.34E+03

 *** WARNING in dft_plus_u.F:1457 :: DFT+U energy contibution is negative ***
 *** possibly due to unphysical Mulliken charges. Check your input, if    ***
 *** this warning persists or try a different method!                     ***

     2 OT LS       0.60E+00    3.8                    -1335.5191711362

 *** WARNING in dft_plus_u.F:1457 :: DFT+U energy contibution is negative ***
 *** possibly due to unphysical Mulliken charges. Check your input, if    ***
 *** this warning persists or try a different method!                     ***

     3 OT CG       0.60E+00    7.6     0.00057994     -1335.5657480738 -7.19E-02

 *** WARNING in dft_plus_u.F:1457 :: DFT+U energy contibution is negative ***
 *** possibly due to unphysical Mulliken charges. Check your input, if    ***
 *** this warning persists or try a different method!                     ***

     4 OT LS       0.70E+00    3.7                    -1335.5818165538

 *** WARNING in dft_plus_u.F:1457 :: DFT+U energy contibution is negative ***
 *** possibly due to unphysical Mulliken charges. Check your input, if    ***
 *** this warning persists or try a different method!                     ***

     5 OT CG       0.70E+00    7.8     0.00060677     -1335.5821506771 -1.64E-02

 *** WARNING in dft_plus_u.F:1457 :: DFT+U energy contibution is negative ***
 *** possibly due to unphysical Mulliken charges. Check your input, if    ***
 *** this warning persists or try a different method!                     ***

     6 OT LS       0.44E+00    3.8                    -1335.5893648624

 *** WARNING in dft_plus_u.F:1457 :: DFT+U energy contibution is negative ***
 *** possibly due to unphysical Mulliken charges. Check your input, if    ***
 *** this warning persists or try a different method!                     ***

     7 OT CG       0.44E+00    7.6     0.00039517     -1335.5933825048 -1.12E-02

 *** WARNING in dft_plus_u.F:1457 :: DFT+U energy contibution is negative ***
 *** possibly due to unphysical Mulliken charges. Check your input, if    ***
 *** this warning persists or try a different method!                     ***

     8 OT LS       0.32E+00    3.8                    -1335.5963158120

 *** WARNING in dft_plus_u.F:1457 :: DFT+U energy contibution is negative ***
 *** possibly due to unphysical Mulliken charges. Check your input, if    ***
 *** this warning persists or try a different method!                     ***

     9 OT CG       0.32E+00    7.6     0.00025285     -1335.5968245794 -3.44E-03

 *** WARNING in dft_plus_u.F:1457 :: DFT+U energy contibution is negative ***
 *** possibly due to unphysical Mulliken charges. Check your input, if    ***
 *** this warning persists or try a different method!                     ***

    10 OT LS       0.40E+00    3.9                    -1335.5985285839

 *** WARNING in dft_plus_u.F:1457 :: DFT+U energy contibution is negative ***
 *** possibly due to unphysical Mulliken charges. Check your input, if    ***
 *** this warning persists or try a different method!                     ***

    11 OT CG       0.40E+00    7.8     0.00021501     -1335.5986065605 -1.78E-03

 *** WARNING in dft_plus_u.F:1457 :: DFT+U energy contibution is negative ***
 *** possibly due to unphysical Mulliken charges. Check your input, if    ***
 *** this warning persists or try a different method!                     ***

    12 OT LS       0.49E+00    3.9                    -1335.6001371938

 *** WARNING in dft_plus_u.F:1457 :: DFT+U energy contibution is negative ***
 *** possibly due to unphysical Mulliken charges. Check your input, if    ***
 *** this warning persists or try a different method!                     ***

    13 OT CG       0.49E+00    7.6     0.00017654     -1335.6001931999 -1.59E-03

 *** WARNING in dft_plus_u.F:1457 :: DFT+U energy contibution is negative ***
 *** possibly due to unphysical Mulliken charges. Check your input, if    ***
 *** this warning persists or try a different method!                     ***

    14 OT LS       0.33E+00    3.8                    -1335.6007135103

 *** WARNING in dft_plus_u.F:1457 :: DFT+U energy contibution is negative ***
 *** possibly due to unphysical Mulliken charges. Check your input, if    ***
 *** this warning persists or try a different method!                     ***

    15 OT CG       0.33E+00    7.7     0.00011360     -1335.6008998489 -7.07E-04

 *** WARNING in dft_plus_u.F:1457 :: DFT+U energy contibution is negative ***
 *** possibly due to unphysical Mulliken charges. Check your input, if    ***
 *** this warning persists or try a different method!                     ***

    16 OT LS       0.46E+00    3.8                    -1335.6012768995

 *** WARNING in dft_plus_u.F:1457 :: DFT+U energy contibution is negative ***
 *** possibly due to unphysical Mulliken charges. Check your input, if    ***
 *** this warning persists or try a different method!                     ***

    17 OT CG       0.46E+00    7.7     0.00010946     -1335.6013111112 -4.11E-04

 *** WARNING in dft_plus_u.F:1457 :: DFT+U energy contibution is negative ***
 *** possibly due to unphysical Mulliken charges. Check your input, if    ***
 *** this warning persists or try a different method!                     ***

    18 OT LS       0.58E+00    3.8                    -1335.6017749948

 *** WARNING in dft_plus_u.F:1457 :: DFT+U energy contibution is negative ***
 *** possibly due to unphysical Mulliken charges. Check your input, if    ***
 *** this warning persists or try a different method!                     ***

    19 OT CG       0.58E+00    7.7     0.00011198     -1335.6017974808 -4.86E-04

 *** WARNING in dft_plus_u.F:1457 :: DFT+U energy contibution is negative ***
 *** possibly due to unphysical Mulliken charges. Check your input, if    ***
 *** this warning persists or try a different method!                     ***

    20 OT LS       0.52E+00    3.8                    -1335.6022428399

 *** WARNING in dft_plus_u.F:1457 :: DFT+U energy contibution is negative ***
 *** possibly due to unphysical Mulliken charges. Check your input, if    ***
 *** this warning persists or try a different method!                     ***

    21 OT CG       0.52E+00    7.7     0.00010183     -1335.6022499425 -4.52E-04

 *** WARNING in dft_plus_u.F:1457 :: DFT+U energy contibution is negative ***
 *** possibly due to unphysical Mulliken charges. Check your input, if    ***
 *** this warning persists or try a different method!                     ***

    22 OT LS       0.53E+00    3.9                    -1335.6026302502

 *** WARNING in dft_plus_u.F:1457 :: DFT+U energy contibution is negative ***
 *** possibly due to unphysical Mulliken charges. Check your input, if    ***
 *** this warning persists or try a different method!                     ***

    23 OT CG       0.53E+00    7.7     0.00009906     -1335.6026303560 -3.80E-04

 *** WARNING in dft_plus_u.F:1457 :: DFT+U energy contibution is negative ***
 *** possibly due to unphysical Mulliken charges. Check your input, if    ***
 *** this warning persists or try a different method!                     ***

    24 OT LS       0.61E+00    3.8                    -1335.6030407873

 *** WARNING in dft_plus_u.F:1457 :: DFT+U energy contibution is negative ***
 *** possibly due to unphysical Mulliken charges. Check your input, if    ***
 *** this warning persists or try a different method!                     ***

    25 OT CG       0.61E+00    7.7     0.00009907     -1335.6030489967 -4.19E-04

 *** WARNING in dft_plus_u.F:1457 :: DFT+U energy contibution is negative ***
 *** possibly due to unphysical Mulliken charges. Check your input, if    ***
 *** this warning persists or try a different method!                     ***

    26 OT LS       0.43E+00    3.9                    -1335.6032960830

 *** WARNING in dft_plus_u.F:1457 :: DFT+U energy contibution is negative ***
 *** possibly due to unphysical Mulliken charges. Check your input, if    ***
 *** this warning persists or try a different method!                     ***

    27 OT CG       0.43E+00    7.7     0.00007726     -1335.6033459877 -2.97E-04

 *** WARNING in dft_plus_u.F:1457 :: DFT+U energy contibution is negative ***
 *** possibly due to unphysical Mulliken charges. Check your input, if    ***
 *** this warning persists or try a different method!                     ***

    28 OT LS       0.38E+00    3.8                    -1335.6034992022

 *** WARNING in dft_plus_u.F:1457 :: DFT+U energy contibution is negative ***
 *** possibly due to unphysical Mulliken charges. Check your input, if    ***
 *** this warning persists or try a different method!                     ***

    29 OT CG       0.38E+00    7.7     0.00006076     -1335.6035028131 -1.57E-04

 *** WARNING in dft_plus_u.F:1457 :: DFT+U energy contibution is negative ***
 *** possibly due to unphysical Mulliken charges. Check your input, if    ***
 *** this warning persists or try a different method!                     ***

    30 OT LS       0.42E+00    3.8                    -1335.6036102109

 *** WARNING in dft_plus_u.F:1457 :: DFT+U energy contibution is negative ***
 *** possibly due to unphysical Mulliken charges. Check your input, if    ***
 *** this warning persists or try a different method!                     ***

    31 OT CG       0.42E+00    7.8     0.00005185     -1335.6036114661 -1.09E-04

 *** WARNING in dft_plus_u.F:1457 :: DFT+U energy contibution is negative ***
 *** possibly due to unphysical Mulliken charges. Check your input, if    ***
 *** this warning persists or try a different method!                     ***

    32 OT LS       0.48E+00    3.8                    -1335.6037007682

 *** WARNING in dft_plus_u.F:1457 :: DFT+U energy contibution is negative ***
 *** possibly due to unphysical Mulliken charges. Check your input, if    ***
 *** this warning persists or try a different method!                     ***

    33 OT CG       0.48E+00    7.7     0.00004174     -1335.6037022666 -9.08E-05

 *** WARNING in dft_plus_u.F:1457 :: DFT+U energy contibution is negative ***
 *** possibly due to unphysical Mulliken charges. Check your input, if    ***
 *** this warning persists or try a different method!                     ***

    34 OT LS       0.43E+00    3.8                    -1335.6037541657

 *** WARNING in dft_plus_u.F:1457 :: DFT+U energy contibution is negative ***
 *** possibly due to unphysical Mulliken charges. Check your input, if    ***
 *** this warning persists or try a different method!                     ***

    35 OT CG       0.43E+00    7.6     0.00003429     -1335.6037548977 -5.26E-05

 *** WARNING in dft_plus_u.F:1457 :: DFT+U energy contibution is negative ***
 *** possibly due to unphysical Mulliken charges. Check your input, if    ***
 *** this warning persists or try a different method!                     ***

    36 OT LS       0.52E+00    3.9                    -1335.6037964027

 *** WARNING in dft_plus_u.F:1457 :: DFT+U energy contibution is negative ***
 *** possibly due to unphysical Mulliken charges. Check your input, if    ***
 *** this warning persists or try a different method!                     ***

    37 OT CG       0.52E+00    7.7     0.00003443     -1335.6037976117 -4.27E-05

 *** WARNING in dft_plus_u.F:1457 :: DFT+U energy contibution is negative ***
 *** possibly due to unphysical Mulliken charges. Check your input, if    ***
 *** this warning persists or try a different method!                     ***

    38 OT LS       0.50E+00    3.9                    -1335.6038384153

 *** WARNING in dft_plus_u.F:1457 :: DFT+U energy contibution is negative ***
 *** possibly due to unphysical Mulliken charges. Check your input, if    ***
 *** this warning persists or try a different method!                     ***

    39 OT CG       0.50E+00    7.6     0.00003197     -1335.6038385280 -4.09E-05

 *** WARNING in dft_plus_u.F:1457 :: DFT+U energy contibution is negative ***
 *** possibly due to unphysical Mulliken charges. Check your input, if    ***
 *** this warning persists or try a different method!                     ***

    40 OT LS       0.46E+00    3.9                    -1335.6038707079

 *** WARNING in dft_plus_u.F:1457 :: DFT+U energy contibution is negative ***
 *** possibly due to unphysical Mulliken charges. Check your input, if    ***
 *** this warning persists or try a different method!                     ***

    41 OT CG       0.46E+00    7.7     0.00002650     -1335.6038709562 -3.24E-05

 *** WARNING in dft_plus_u.F:1457 :: DFT+U energy contibution is negative ***
 *** possibly due to unphysical Mulliken charges. Check your input, if    ***
 *** this warning persists or try a different method!                     ***

    42 OT LS       0.51E+00    3.8                    -1335.6038957611

 *** WARNING in dft_plus_u.F:1457 :: DFT+U energy contibution is negative ***
 *** possibly due to unphysical Mulliken charges. Check your input, if    ***
 *** this warning persists or try a different method!                     ***

    43 OT CG       0.51E+00    7.8     0.00002511     -1335.6038960829 -2.51E-05

 *** WARNING in dft_plus_u.F:1457 :: DFT+U energy contibution is negative ***
 *** possibly due to unphysical Mulliken charges. Check your input, if    ***
 *** this warning persists or try a different method!                     ***

    44 OT LS       0.50E+00    3.8                    -1335.6039182419

 *** WARNING in dft_plus_u.F:1457 :: DFT+U energy contibution is negative ***
 *** possibly due to unphysical Mulliken charges. Check your input, if    ***
 *** this warning persists or try a different method!                     ***

    45 OT CG       0.50E+00    7.6     0.00002366     -1335.6039182491 -2.22E-05

 *** WARNING in dft_plus_u.F:1457 :: DFT+U energy contibution is negative ***
 *** possibly due to unphysical Mulliken charges. Check your input, if    ***
 *** this warning persists or try a different method!                     ***

    46 OT LS       0.41E+00    3.8                    -1335.6039332658

 *** WARNING in dft_plus_u.F:1457 :: DFT+U energy contibution is negative ***
 *** possibly due to unphysical Mulliken charges. Check your input, if    ***
 *** this warning persists or try a different method!                     ***

    47 OT CG       0.41E+00    7.8     0.00001888     -1335.6039341570 -1.59E-05

 *** WARNING in dft_plus_u.F:1457 :: DFT+U energy contibution is negative ***
 *** possibly due to unphysical Mulliken charges. Check your input, if    ***
 *** this warning persists or try a different method!                     ***

    48 OT LS       0.47E+00    3.8                    -1335.6039456708

 *** WARNING in dft_plus_u.F:1457 :: DFT+U energy contibution is negative ***
 *** possibly due to unphysical Mulliken charges. Check your input, if    ***
 *** this warning persists or try a different method!                     ***

    49 OT CG       0.47E+00    7.9     0.00001611     -1335.6039458917 -1.17E-05

 *** WARNING in dft_plus_u.F:1457 :: DFT+U energy contibution is negative ***
 *** possibly due to unphysical Mulliken charges. Check your input, if    ***
 *** this warning persists or try a different method!                     ***

    50 OT LS       0.51E+00    3.8                    -1335.6039550160

 *** WARNING in dft_plus_u.F:1457 :: DFT+U energy contibution is negative ***
 *** possibly due to unphysical Mulliken charges. Check your input, if    ***
 *** this warning persists or try a different method!                     ***

    51 OT CG       0.51E+00    7.7     0.00001519     -1335.6039550583 -9.17E-06

 *** WARNING in dft_plus_u.F:1457 :: DFT+U energy contibution is negative ***
 *** possibly due to unphysical Mulliken charges. Check your input, if    ***
 *** this warning persists or try a different method!                     ***

    52 OT LS       0.49E+00    3.9                    -1335.6039629706

 *** WARNING in dft_plus_u.F:1457 :: DFT+U energy contibution is negative ***
 *** possibly due to unphysical Mulliken charges. Check your input, if    ***
 *** this warning persists or try a different method!                     ***

    53 OT CG       0.49E+00    7.7     0.00001382     -1335.6039629776 -7.92E-06

 *** WARNING in dft_plus_u.F:1457 :: DFT+U energy contibution is negative ***
 *** possibly due to unphysical Mulliken charges. Check your input, if    ***
 *** this warning persists or try a different method!                     ***

    54 OT LS       0.48E+00    3.9                    -1335.6039694152

 *** WARNING in dft_plus_u.F:1457 :: DFT+U energy contibution is negative ***
 *** possibly due to unphysical Mulliken charges. Check your input, if    ***
 *** this warning persists or try a different method!                     ***

    55 OT CG       0.48E+00    7.7     0.00001320     -1335.6039694171 -6.44E-06

 *** WARNING in dft_plus_u.F:1457 :: DFT+U energy contibution is negative ***
 *** possibly due to unphysical Mulliken charges. Check your input, if    ***
 *** this warning persists or try a different method!                     ***

    56 OT LS       0.51E+00    3.8                    -1335.6039755509

 *** WARNING in dft_plus_u.F:1457 :: DFT+U energy contibution is negative ***
 *** possibly due to unphysical Mulliken charges. Check your input, if    ***
 *** this warning persists or try a different method!                     ***

    57 OT CG       0.51E+00    7.7     0.00001276     -1335.6039755629 -6.15E-06

 *** WARNING in dft_plus_u.F:1457 :: DFT+U energy contibution is negative ***
 *** possibly due to unphysical Mulliken charges. Check your input, if    ***
[...]
 flops     2 x     2 x    13             10518144     100.0%      0.0%      0.0%
 flops     2 x     2 x    15             12136320     100.0%      0.0%      0.0%
 flops    19 x     2 x    13             16266432     100.0%      0.0%      0.0%
 flops     2 x    19 x    13             16266432     100.0%      0.0%      0.0%
 flops    19 x     2 x    15             18768960     100.0%      0.0%      0.0%
 flops     2 x    19 x    15             18768960     100.0%      0.0%      0.0%
 flops     8 x     2 x    13             27396096     100.0%      0.0%      0.0%
 flops     2 x     8 x    13             27396096     100.0%      0.0%      0.0%
 flops    19 x    19 x    13             29434496     100.0%      0.0%      0.0%
 flops     2 x    13 x     2             31187520     100.0%      0.0%      0.0%
 flops     8 x     2 x    15             31610880     100.0%      0.0%      0.0%
 flops     2 x     8 x    15             31610880     100.0%      0.0%      0.0%
 flops    55 x    13 x    56             31951920     100.0%      0.0%      0.0%
 flops    56 x    13 x    55             31951920     100.0%      0.0%      0.0%
 flops    19 x    19 x    15             33962880     100.0%      0.0%      0.0%
 flops     2 x    15 x     2             35773920     100.0%      0.0%      0.0%
 flops    13 x    13 x    55             36176140     100.0%      0.0%      0.0%
 flops    55 x    15 x    56             36867600     100.0%      0.0%      0.0%
 flops    56 x    15 x    55             36867600     100.0%      0.0%      0.0%
 flops    19 x     8 x    13             43377152     100.0%      0.0%      0.0%
 flops     8 x    19 x    13             43377152     100.0%      0.0%      0.0%
 flops    13 x    13 x    32             44302336     100.0%      0.0%      0.0%
 flops    13 x    32 x    13             44302336     100.0%      0.0%      0.0%
 flops    32 x    13 x    13             44302336     100.0%      0.0%      0.0%
 flops    15 x    15 x    55             48163500     100.0%      0.0%      0.0%
 flops    19 x    13 x     2             49380240     100.0%      0.0%      0.0%
 flops     2 x    13 x    19             49380240     100.0%      0.0%      0.0%
 flops    19 x     8 x    15             50050560     100.0%      0.0%      0.0%
 flops     8 x    19 x    15             50050560     100.0%      0.0%      0.0%
 flops    55 x    13 x    13             50490440     100.0%      0.0%      0.0%
 flops    15 x    15 x    32             51624000     100.0%      0.0%      0.0%
 flops    15 x    32 x    15             51624000     100.0%      0.0%      0.0%
 flops    32 x    15 x    15             51624000     100.0%      0.0%      0.0%
 flops    13 x    32 x    56             51810304     100.0%      0.0%      0.0%
 flops    32 x    13 x    56             51810304     100.0%      0.0%      0.0%
 flops    19 x    15 x     2             56642040     100.0%      0.0%      0.0%
 flops     2 x    15 x    19             56642040     100.0%      0.0%      0.0%
 flops    55 x    15 x    15             67221000     100.0%      0.0%      0.0%
 flops    56 x    13 x    32             72310784     100.0%      0.0%      0.0%
 flops    56 x    32 x    13             72310784     100.0%      0.0%      0.0%
 flops    15 x    32 x    56             74726400     100.0%      0.0%      0.0%
 flops    32 x    15 x    56             74726400     100.0%      0.0%      0.0%
 flops     8 x     8 x    13             75665408     100.0%      0.0%      0.0%
 flops    19 x    13 x    19             78185380     100.0%      0.0%      0.0%
 flops     8 x    13 x     2             83166720     100.0%      0.0%      0.0%
 flops     2 x    13 x     8             83166720     100.0%      0.0%      0.0%
 flops     8 x     8 x    15             87306240     100.0%      0.0%      0.0%
 flops    19 x    15 x    19             89683230     100.0%      0.0%      0.0%
 flops     8 x    15 x     2             95397120     100.0%      0.0%      0.0%
 flops     2 x    15 x     8             95397120     100.0%      0.0%      0.0%
 flops    56 x    32 x    56            102961152     100.0%      0.0%      0.0%
 flops    56 x    15 x    32            104294400     100.0%      0.0%      0.0%
 flops    56 x    32 x    15            104294400     100.0%      0.0%      0.0%
 flops    19 x    13 x     8            131680640     100.0%      0.0%      0.0%
 flops     8 x    13 x    19            131680640     100.0%      0.0%      0.0%
 flops    19 x    15 x     8            151045440     100.0%      0.0%      0.0%
 flops     8 x    15 x    19            151045440     100.0%      0.0%      0.0%
 flops    55 x    13 x    55            219669450     100.0%      0.0%      0.0%
 flops     8 x    13 x     8            221777920     100.0%      0.0%      0.0%
 flops     2 x     2 x    32            233017344     100.0%      0.0%      0.0%
 flops    55 x    15 x    55            253464750     100.0%      0.0%      0.0%
 flops     8 x    15 x     8            254392320     100.0%      0.0%      0.0%
 flops    13 x    32 x    55            356195840     100.0%      0.0%      0.0%
 flops    32 x    13 x    55            356195840     100.0%      0.0%      0.0%
 flops    19 x     2 x    32            360364032     100.0%      0.0%      0.0%
 flops     2 x    19 x    32            360364032     100.0%      0.0%      0.0%
 flops    32 x    32 x    13            436207616     100.0%      0.0%      0.0%
 flops    13 x    32 x    32            436207616     100.0%      0.0%      0.0%
 flops    32 x    13 x    32            436207616     100.0%      0.0%      0.0%
 flops    55 x    32 x    13            497136640     100.0%      0.0%      0.0%
 flops    55 x    13 x    32            497136640     100.0%      0.0%      0.0%
 flops    15 x    32 x    55            513744000     100.0%      0.0%      0.0%
 flops    32 x    15 x    55            513744000     100.0%      0.0%      0.0%
 flops    32 x    32 x    15            550656000     100.0%      0.0%      0.0%
 flops    15 x    32 x    32            550656000     100.0%      0.0%      0.0%
 flops    32 x    15 x    32            550656000     100.0%      0.0%      0.0%
 flops     8 x     2 x    32            606928896     100.0%      0.0%      0.0%
 flops     2 x     8 x    32            606928896     100.0%      0.0%      0.0%
 flops    19 x    19 x    32            652087296     100.0%      0.0%      0.0%
 flops     2 x    32 x     2            688665600     100.0%      0.0%      0.0%
 flops    55 x    32 x    56            707857920     100.0%      0.0%      0.0%
 flops    56 x    32 x    55            707857920     100.0%      0.0%      0.0%
 flops    55 x    32 x    15            717024000     100.0%      0.0%      0.0%
 flops    55 x    15 x    32            717024000     100.0%      0.0%      0.0%
 flops    19 x     8 x    32            960970752     100.0%      0.0%      0.0%
 flops     8 x    19 x    32            960970752     100.0%      0.0%      0.0%
 flops    19 x    32 x     2           1090387200     100.0%      0.0%      0.0%
 flops     2 x    32 x    19           1090387200     100.0%      0.0%      0.0%
 flops    32 x    32 x    56           1307213824     100.0%      0.0%      0.0%
 flops     8 x     8 x    32           1676279808     100.0%      0.0%      0.0%
 flops    19 x    32 x    19           1726446400     100.0%      0.0%      0.0%
 flops    56 x    32 x    32           1824456704     100.0%      0.0%      0.0%
 flops     8 x    32 x     2           1836441600     100.0%      0.0%      0.0%
 flops     2 x    32 x     8           1836441600     100.0%      0.0%      0.0%
 flops    19 x    32 x     8           2907699200     100.0%      0.0%      0.0%
 flops     8 x    32 x    19           2907699200     100.0%      0.0%      0.0%
 flops    55 x    32 x    55           4866523200     100.0%      0.0%      0.0%
 flops     8 x    32 x     8           4897177600     100.0%      0.0%      0.0%
 flops    32 x    32 x    55           8987095040     100.0%      0.0%      0.0%
 flops    32 x    32 x    32          10168631296     100.0%      0.0%      0.0%
 flops    55 x    32 x    32          12543139840     100.0%      0.0%      0.0%
 flops inhomo. stacks                           0       0.0%      0.0%      0.0%
 flops total                        77.977476E+09     100.0%      0.0%      0.0%
 flops max/rank                      2.331619E+09     100.0%      0.0%      0.0%
 matmuls inhomo. stacks                         0       0.0%      0.0%      0.0%
 matmuls total                           15400207     100.0%      0.0%      0.0%
 number of processed stacks               2221981     100.0%      0.0%      0.0%
 average stack size                                     6.9       0.0       0.0
 marketing flops                    84.782932E+09
 -------------------------------------------------------------------------------
 # multiplications                           3754
 max memory usage/rank               1.027621E+09
 # max total images/rank                        1
 # max 3D layers                                1
 # MPI messages exchanged                 3363584
 MPI messages size (bytes):
  total size                        21.660492E+09
  min size                           0.000000E+00
  max size                          25.088000E+03
  average size                       6.439706E+03
 MPI breakdown and total messages size (bytes):
             size <=      128             1415519                        0
       128 < size <=     8192             1041817               6802301464
      8192 < size <=    32768              906248              14858620056
     32768 < size <=   131072                   0                        0
    131072 < size <=  4194304                   0                        0
   4194304 < size <= 16777216                   0                        0
  16777216 < size                               0                        0
 -------------------------------------------------------------------------------

 MEMORY| Estimated peak process memory [MiB]                                 981

 -------------------------------------------------------------------------------
 ----                             MULTIGRID INFO                            ----
 -------------------------------------------------------------------------------
 count for grid        1:        1933851          cutoff [a.u.]          325.00
 count for grid        2:         808293          cutoff [a.u.]          108.33
 count for grid        3:         493709          cutoff [a.u.]           36.11
 count for grid        4:         164475          cutoff [a.u.]           12.04
 count for grid        5:           5760          cutoff [a.u.]            4.01
 count for grid        6:              0          cutoff [a.u.]            1.34
 count for grid        7:              0          cutoff [a.u.]            0.45
 count for grid        8:              0          cutoff [a.u.]            0.15
 count for grid        9:              0          cutoff [a.u.]            0.05
 count for grid       10:              0          cutoff [a.u.]            0.02
 total gridlevel count  :        3406088

 -------------------------------------------------------------------------------
 -                                                                             -
 -                         MESSAGE PASSING PERFORMANCE                         -
 -                                                                             -
 -------------------------------------------------------------------------------

 ROUTINE             CALLS      AVE VOLUME [Bytes]
 MP_Group               35
 MP_Bcast             2953                 110774.
 MP_Allreduce        25580                    239.
 MP_Sync              2026
 MP_Alltoall         15917               10654843.
 MP_ISendRecv       169344                  79637.
 MP_Wait            519676
 MP_ISend           171576                 102170.
 MP_IRecv           171352                 101697.
 MP_Recv                84                  70560.
 MP_Memory          151404
 -------------------------------------------------------------------------------


 -------------------------------------------------------------------------------
 -                                                                             -
 -                           R E F E R E N C E S                               -
 -                                                                             -
 -------------------------------------------------------------------------------
 
 CP2K version 6.1, the CP2K developers group (2018).
 CP2K is freely available from https://www.cp2k.org/ .

 Schuett, Ole; Messmer, Peter; Hutter, Juerg; VandeVondele, Joost. 
 Electronic Structure Calculations on Graphics Processing Units, John Wiley & Sons, Ltd, 173-190 (2016). 
 GPU-Accelerated Sparse Matrix-Matrix Multiplication for Linear Scaling Density Functional Theory.
 http://dx.doi.org/10.1002/9781118670712.ch8


 Borstnik, U; VandeVondele, J; Weber, V; Hutter, J. 
 PARALLEL COMPUTING, 40 (5-6), 47-58 (2014). 
 Sparse matrix multiplication: The distributed block-compressed sparse
 row library.
 http://dx.doi.org/10.1016/j.parco.2014.03.012


 Hutter, J; Iannuzzi, M; Schiffmann, F; VandeVondele, J. 
 WILEY INTERDISCIPLINARY REVIEWS-COMPUTATIONAL MOLECULAR SCIENCE, 4 (1), 15-25 (2014). 
 CP2K: atomistic simulations of condensed matter systems.
 http://dx.doi.org/10.1002/wcms.1159


 Krack, M. 
 THEORETICAL CHEMISTRY ACCOUNTS, 114 (1-3), 145-152 (2005). 
 Pseudopotentials for H to Kr optimized for gradient-corrected
 exchange-correlation functionals.
 http://dx.doi.org/10.1007/s00214-005-0655-y


 VandeVondele, J; Krack, M; Mohamed, F; Parrinello, M; Chassaing, T;
 Hutter, J. COMPUTER PHYSICS COMMUNICATIONS, 167 (2), 103-128 (2005). 
 QUICKSTEP: Fast and accurate density functional calculations using a
 mixed Gaussian and plane waves approach.
 http://dx.doi.org/10.1016/j.cpc.2004.12.014


 Frigo, M; Johnson, SG. 
 PROCEEDINGS OF THE IEEE, 93 (2), 216-231 (2005). 
 The design and implementation of FFTW3.
 http://dx.doi.org/10.1109/JPROC.2004.840301


 VandeVondele, J; Hutter, J. 
 JOURNAL OF CHEMICAL PHYSICS, 118 (10), 4365-4369 (2003). 
 An efficient orbital transformation method for electronic structure
 calculations.
 http://dx.doi.org/10.1063/1.1543154


 Hartwigsen, C; Goedecker, S; Hutter, J. 
 PHYSICAL REVIEW B, 58 (7), 3641-3662 (1998). 
 Relativistic separable dual-space Gaussian pseudopotentials from H to Rn.
 http://dx.doi.org/10.1103/PhysRevB.58.3641


 Dudarev, SL; Botton, GA; Savrasov, SY; Humphreys, CJ; Sutton, AP. 
 PHYSICAL REVIEW B, 57 (3), 1505-1509 (1998). 
 Electron-energy-loss spectra and the structural stability of
 nickel oxide: An LSDA+U study.
 http://dx.doi.org/10.1103/PhysRevB.57.1505


 Lippert, G; Hutter, J; Parrinello, M. 
 MOLECULAR PHYSICS, 92 (3), 477-487 (1997). 
 A hybrid Gaussian and plane wave density functional scheme.
 http://dx.doi.org/10.1080/002689797170220


 Dudarev, SL; Manh, DN; Sutton, AP. 
 PHILOSOPHICAL MAGAZINE B, 75 (5), 613-628 (1997). 
 Effect of Mott-Hubbard correlations on the electronic
 structure and structural stability of uranium dioxide.
 http://dx.doi.org/10.1080/13642819708202343


 Goedecker, S; Teter, M; Hutter, J. 
 PHYSICAL REVIEW B, 54 (3), 1703-1710 (1996). 
 Separable dual-space Gaussian pseudopotentials.
 http://dx.doi.org/10.1103/PhysRevB.54.1703


 BECKE, AD. PHYSICAL REVIEW A, 38 (6), 3098-3100 (1988). 
 DENSITY-FUNCTIONAL EXCHANGE-ENERGY APPROXIMATION WITH CORRECT
 ASYMPTOTIC-BEHAVIOR.
 http://dx.doi.org/10.1103/PhysRevA.38.3098


 LEE, CT; YANG, WT; PARR, RG. 
 PHYSICAL REVIEW B, 37 (2), 785-789 (1988). 
 DEVELOPMENT OF THE COLLE-SALVETTI CORRELATION-ENERGY FORMULA INTO A
 FUNCTIONAL OF THE ELECTRON-DENSITY.
 http://dx.doi.org/10.1103/PhysRevB.37.785


 -------------------------------------------------------------------------------
 -                                                                             -
 -                                T I M I N G                                  -
 -                                                                             -
 -------------------------------------------------------------------------------
 SUBROUTINE                       CALLS  ASD         SELF TIME        TOTAL TIME
                                MAXIMUM       AVERAGE  MAXIMUM  AVERAGE  MAXIMUM
 CP2K                                 1  1.0    0.035    0.044  646.458  646.458
 qs_energies                          1  2.0    0.000    0.000  645.535  645.535
 scf_env_do_scf                       1  3.0    0.000    0.000  642.841  642.841
 scf_env_do_scf_inner_loop          111  4.0    0.004    0.009  636.418  636.427
 pw_transfer                       4977  9.3    0.292    0.349  454.589  460.238
 fft_wrap_pw1pw2                   4755 10.3    0.040    0.049  451.643  457.344
 qs_ks_update_qs_env                112  5.0    0.004    0.004  444.090  444.242
 rebuild_ks_matrix                  111  6.0    0.000    0.000  444.066  444.219
 qs_ks_build_kohn_sham_matrix       111  7.0    0.321    0.466  444.066  444.219
 fft_wrap_pw1pw2_330               1731 11.9   27.372   28.450  430.536  436.707
 fft3d_ps                          4755 12.3  194.216  224.461  362.237  370.059
 qs_vxc_create                      111  8.0    0.002    0.002  344.956  345.500
 xc_vxc_pw_create                    56  9.0    4.661    6.161  238.422  238.967
 xc_rho_set_and_dset_create         111 10.0   10.036   11.959  209.922  214.740
 qs_rho_update_rho                  112  5.0    0.001    0.001  196.372  196.379
 calculate_rho_elec                 224  6.0    6.188   27.059  196.371  196.378
 density_rs2pw                      224  7.0    0.020    0.022  178.135  185.113
 mp_alltoall_z22v                  4755 14.3  115.188  128.098  115.188  128.098
 x_to_yz                           1282 14.3   36.517   41.369  101.744  107.070
 xc_exc_calc                         55  9.0    0.488    0.558  106.531  106.539
 rs_pw_transfer                    3364  9.0    0.030    0.036   76.485   79.599
 yz_to_x                           1121 12.9   15.307   16.395   65.186   71.857
 sum_up_and_integrate                56  8.0    0.647    0.751   70.730   70.736
 integrate_v_rspace                 112  9.0    1.734    9.400   70.082   70.116
 potential_pw2rs                    112 10.0    0.092    0.107   60.432   60.470
 pw_scatter_p                      2066 13.5   34.161   35.902   34.161   35.902
 rs_pw_transfer_RS2PW_330           226  9.0   11.977   14.674   30.874   34.273
 mp_waitany                       45968 11.0   24.534   29.893   24.534   29.893
 pw_gather_p                       2689 11.4   26.605   27.969   26.605   27.969
 pw_derive                         1002 10.7   20.081   21.592   20.081   21.592
 fft_wrap_pw1pw2_110                336 11.0    1.055    1.124   16.907   18.666
 pw_copy                           2342 10.8   13.569   15.969   13.569   15.969
 mp_sum_d                          3673  9.7   10.348   13.415   10.348   13.415
 -------------------------------------------------------------------------------

 The number of warnings for this run is : 111
 
 -------------------------------------------------------------------------------
  **** **** ******  **  PROGRAM ENDED AT                 2019-08-09 14:22:36.042
 ***** ** ***  *** **   PROGRAM RAN ON            cpn-u25-21.cbls.ccr.buffalo.ed
 **    ****   ******    PROGRAM RAN BY                                  pavankum
 ***** **    ** ** **   PROGRAM PROCESS ID                                402181
  **** **  *******  **  PROGRAM STOPPED IN /projects/academic/mdupuis2/pavan/VAB
                                           _calculation/results_for_paper/3.1D_F
                                           e_7units/blyp_plusU10/state1_at_point
                                           0_geo
