 DBCSR| Multiplication driver                                               BLAS
 DBCSR| Multrec recursion limit                                              512
 DBCSR| Multiplication stack size                                           1000
 DBCSR| Maximum elements for images                                    UNLIMITED
 DBCSR| Multiplicative factor virtual images                                   1
 DBCSR| Multiplication size stacks                                             3
 DBCSR| Number of 3D layers                                               SINGLE
 DBCSR| Use MPI memory allocation                                              T
 DBCSR| Use RMA algorithm                                                      F
 DBCSR| Use Communication thread                                               T
 DBCSR| Communication thread load                                             87


  **** **** ******  **  PROGRAM STARTED AT               2019-08-02 13:26:28.124
 ***** ** ***  *** **   PROGRAM STARTED ON        cpn-p28-41.cbls.ccr.buffalo.ed
 **    ****   ******    PROGRAM STARTED BY                              pavankum
 ***** **    ** ** **   PROGRAM PROCESS ID                                 30753
  **** **  *******  **  PROGRAM STARTED IN /projects/academic/mdupuis2/pavan/VAB
                                           _calculation/results_for_paper/7.TiO2
                                           _pbe_plus_U10/point_0.6

 CP2K| version string:                                          CP2K version 6.1
 CP2K| source code revision number:                                    svn:18464
 CP2K| cp2kflags: libint fftw3 libxc parallel mpi3 scalapack libderiv_max_am1=5 
 CP2K|            libint_max_am=6
 CP2K| is freely available from                            https://www.cp2k.org/
 CP2K| Program compiled at                          Fri Nov 30 14:17:09 EST 2018
 CP2K| Program compiled on                       srv-p22-12.cbls.ccr.buffalo.edu
 CP2K| Program compiled for                                                local
 CP2K| Data directory path    /projects/academic/mdupuis2/pavan/cp2k/cp2k-6.1/da
 CP2K| Input file name                                                 input.inp

 GLOBAL| Force Environment number                                              1
 GLOBAL| Basis set file name            /projects/academic/mdupuis2/pavan/BASIS_
 GLOBAL| Potential file name            /projects/academic/mdupuis2/pavan/POTENT
 GLOBAL| MM Potential file name                                     MM_POTENTIAL
 GLOBAL| Coordinate file name                           ./intermediate_point.xyz
 GLOBAL| Method name                                                        CP2K
 GLOBAL| Project name                                                    p_tio2_
 GLOBAL| Preferred FFT library                                             FFTW3
 GLOBAL| Preferred diagonalization lib.                                       SL
 GLOBAL| Run type                                                         ENERGY
 GLOBAL| All-to-all communication in single precision                          F
 GLOBAL| FFTs using library dependent lengths                                  T
 GLOBAL| Global print level                                               MEDIUM
 GLOBAL| Total number of message passing processes                            40
 GLOBAL| Number of threads for this process                                    1
 GLOBAL| This output is from process                                           0
 GLOBAL| CPU model name :  Intel(R) Xeon(R) CPU E5-2650 v3 @ 2.30GHz

 MEMORY| system memory details [Kb]
 MEMORY|                        rank 0           min           max       average
 MEMORY| MemTotal            131740876     131740876     131740876     131740876
 MEMORY| MemFree             126135684     114478116     126135684     120306900
 MEMORY| Buffers                494884        494884        495628        495256
 MEMORY| Cached                 897576        897576      12445996       6671786
 MEMORY| Slab                   399004        399004        440668        419836
 MEMORY| SReclaimable           227184        227184        258780        242982
 MEMORY| MemLikelyFree       127755328     127678520     127755328     127716924


 *** Fundamental physical constants (SI units) ***

 *** Literature: B. J. Mohr and B. N. Taylor,
 ***             CODATA recommended values of the fundamental physical
 ***             constants: 2006, Web Version 5.1
 ***             http://physics.nist.gov/constants

 Speed of light in vacuum [m/s]                             2.99792458000000E+08
 Magnetic constant or permeability of vacuum [N/A**2]       1.25663706143592E-06
 Electric constant or permittivity of vacuum [F/m]          8.85418781762039E-12
 Planck constant (h) [J*s]                                  6.62606896000000E-34
 Planck constant (h-bar) [J*s]                              1.05457162825177E-34
 Elementary charge [C]                                      1.60217648700000E-19
 Electron mass [kg]                                         9.10938215000000E-31
 Electron g factor [ ]                                     -2.00231930436220E+00
 Proton mass [kg]                                           1.67262163700000E-27
 Fine-structure constant                                    7.29735253760000E-03
 Rydberg constant [1/m]                                     1.09737315685270E+07
 Avogadro constant [1/mol]                                  6.02214179000000E+23
 Boltzmann constant [J/K]                                   1.38065040000000E-23
 Atomic mass unit [kg]                                      1.66053878200000E-27
 Bohr radius [m]                                            5.29177208590000E-11

 *** Conversion factors ***

 [u] -> [a.u.]                                              1.82288848426455E+03
 [Angstrom] -> [Bohr] = [a.u.]                              1.88972613288564E+00
 [a.u.] = [Bohr] -> [Angstrom]                              5.29177208590000E-01
 [a.u.] -> [s]                                              2.41888432650478E-17
 [a.u.] -> [fs]                                             2.41888432650478E-02
 [a.u.] -> [J]                                              4.35974393937059E-18
 [a.u.] -> [N]                                              8.23872205491840E-08
 [a.u.] -> [K]                                              3.15774647902944E+05
 [a.u.] -> [kJ/mol]                                         2.62549961709828E+03
 [a.u.] -> [kcal/mol]                                       6.27509468713739E+02
 [a.u.] -> [Pa]                                             2.94210107994716E+13
 [a.u.] -> [bar]                                            2.94210107994716E+08
 [a.u.] -> [atm]                                            2.90362800883016E+08
 [a.u.] -> [eV]                                             2.72113838565563E+01
 [a.u.] -> [Hz]                                             6.57968392072181E+15
 [a.u.] -> [1/cm] (wave numbers)                            2.19474631370540E+05
 [a.u./Bohr**2] -> [1/cm]                                   5.14048714338585E+03
 

 CELL_TOP| Volume [angstrom^3]:                                         2867.349
 CELL_TOP| Vector a [angstrom    13.869     0.000     0.000    |a| =      13.869
 CELL_TOP| Vector b [angstrom     0.000    13.869     0.000    |b| =      13.869
 CELL_TOP| Vector c [angstrom     0.000     0.000    14.907    |c| =      14.907
 CELL_TOP| Angle (b,c), alpha [degree]:                                   90.000
 CELL_TOP| Angle (a,c), beta  [degree]:                                   90.000
 CELL_TOP| Angle (a,b), gamma [degree]:                                   90.000
 CELL_TOP| Numerically orthorhombic:                                         YES

 CELL| Volume [angstrom^3]:                                             2867.349
 CELL| Vector a [angstrom]:      13.869     0.000     0.000    |a| =      13.869
 CELL| Vector b [angstrom]:       0.000    13.869     0.000    |b| =      13.869
 CELL| Vector c [angstrom]:       0.000     0.000    14.907    |c| =      14.907
 CELL| Angle (b,c), alpha [degree]:                                       90.000
 CELL| Angle (a,c), beta  [degree]:                                       90.000
 CELL| Angle (a,b), gamma [degree]:                                       90.000
 CELL| Numerically orthorhombic:                                             YES

 CELL_REF| Volume [angstrom^3]:                                         2867.349
 CELL_REF| Vector a [angstrom    13.869     0.000     0.000    |a| =      13.869
 CELL_REF| Vector b [angstrom     0.000    13.869     0.000    |b| =      13.869
 CELL_REF| Vector c [angstrom     0.000     0.000    14.907    |c| =      14.907
 CELL_REF| Angle (b,c), alpha [degree]:                                   90.000
 CELL_REF| Angle (a,c), beta  [degree]:                                   90.000
 CELL_REF| Angle (a,b), gamma [degree]:                                   90.000
 CELL_REF| Numerically orthorhombic:                                         YES

 *******************************************************************************
 *******************************************************************************
 **                                                                           **
 **     #####                         ##              ##                      **
 **    ##   ##            ##          ##              ##                      **
 **   ##     ##                       ##            ######                    **
 **   ##     ##  ##   ##  ##   #####  ##  ##   ####   ##    #####    #####    **
 **   ##     ##  ##   ##  ##  ##      ## ##   ##      ##   ##   ##  ##   ##   **
 **   ##  ## ##  ##   ##  ##  ##      ####     ###    ##   ######   ######    **
 **    ##  ###   ##   ##  ##  ##      ## ##      ##   ##   ##       ##        **
 **     #######   #####   ##   #####  ##  ##  ####    ##    #####   ##        **
 **           ##                                                    ##        **
 **                                                                           **
 **                                                ... make the atoms dance   **
 **                                                                           **
 **            Copyright (C) by CP2K developers group (2000 - 2018)           **
 **                                                                           **
 *******************************************************************************

 DFT| Spin unrestricted (spin-polarized) Kohn-Sham calculation               UKS
 DFT| Multiplicity                                                             2
 DFT| Number of spin states                                                    2
 DFT| Charge                                                                  -1
 DFT| Self-interaction correction (SIC)                                       NO
 DFT| Cutoffs: density                                              1.000000E-10
 DFT|          gradient                                             1.000000E-10
 DFT|          tau                                                  1.000000E-10
 DFT|          cutoff_smoothing_range                               0.000000E+00
 DFT| XC density smoothing                                                  NONE
 DFT| XC derivatives                                                          PW

 DFT+U| Method                                                          MULLIKEN
 DFT+U| Check atomic kind information for details
 FUNCTIONAL| ROUTINE=NEW
 FUNCTIONAL| PBE:
 FUNCTIONAL| J.P.Perdew, K.Burke, M.Ernzerhof, Phys. Rev. Letter, vol. 77, n 18,
 FUNCTIONAL|  pp. 3865-3868, (1996){spin polarized}                             

 QS| Method:                                                                 GPW
 QS| Density plane wave grid type                        NON-SPHERICAL FULLSPACE
 QS| Number of grid levels:                                                   10
 QS| Density cutoff [a.u.]:                                                325.0
 QS| Multi grid cutoff [a.u.]: 1) grid level                               325.0
 QS|                           2) grid level                               108.3
 QS|                           3) grid level                                36.1
 QS|                           4) grid level                                12.0
 QS|                           5) grid level                                 4.0
 QS|                           6) grid level                                 1.3
 QS|                           7) grid level                                 0.4
 QS|                           8) grid level                                 0.1
 QS|                           9) grid level                                 0.0
 QS|                          10) grid level                                 0.0
 QS| Grid level progression factor:                                          3.0
 QS| Relative density cutoff [a.u.]:                                        30.0
 QS| Consistent realspace mapping and integration 
 QS| Interaction thresholds: eps_pgf_orb:                                1.0E-12
 QS|                         eps_filter_matrix:                          0.0E+00
 QS|                         eps_core_charge:                            1.0E-14
 QS|                         eps_rho_gspace:                             1.0E-12
 QS|                         eps_rho_rspace:                             1.0E-12
 QS|                         eps_gvg_rspace:                             1.0E-06
 QS|                         eps_ppl:                                    1.0E-02
 QS|                         eps_ppnl:                                   1.0E-08


 ATOMIC KIND INFORMATION

  1. Atomic kind: Ti                                    Number of atoms:      90

     Orbital Basis Set                                         SZV-MOLOPT-SR-GTH

       Number of orbital shell sets:                                           1
       Number of orbital shells:                                               4
       Number of primitive Cartesian functions:                                6
       Number of Cartesian basis functions:                                   11
       Number of spherical basis functions:                                   10
       Norm type:                                                              2

       Normalised Cartesian orbitals:

                        Set   Shell   Orbital            Exponent    Coefficient

                          1       1    2s                7.884570       0.015554
                                                         3.894698       0.963603
                                                         1.513589      -0.631435
                                                         0.596768      -0.343022
                                                         0.222222      -0.006534
                                                         0.077078       0.007652

                          1       2    3s                7.884570      -0.009340
                                                         3.894698       0.212624
                                                         1.513589      -0.258368
                                                         0.596768      -0.226206
                                                         0.222222       0.039438
                                                         0.077078       0.107179

                          1       3    3px               7.884570      -2.034794
                                                         3.894698       0.782008
                                                         1.513589       1.253903
                                                         0.596768       0.347823
                                                         0.222222       0.016778
                                                         0.077078      -0.000433
                          1       3    3py               7.884570      -2.034794
                                                         3.894698       0.782008
                                                         1.513589       1.253903
                                                         0.596768       0.347823
                                                         0.222222       0.016778
                                                         0.077078      -0.000433
                          1       3    3pz               7.884570      -2.034794
                                                         3.894698       0.782008
                                                         1.513589       1.253903
                                                         0.596768       0.347823
                                                         0.222222       0.016778
                                                         0.077078      -0.000433

                          1       4    4dx2              7.884570       3.047350
                                                         3.894698       3.289529
                                                         1.513589       1.060616
                                                         0.596768       0.249930
                                                         0.222222       0.038806
                                                         0.077078       0.002319
                          1       4    4dxy              7.884570       5.278165
                                                         3.894698       5.697631
                                                         1.513589       1.837041
                                                         0.596768       0.432892
                                                         0.222222       0.067214
                                                         0.077078       0.004017
                          1       4    4dxz              7.884570       5.278165
                                                         3.894698       5.697631
                                                         1.513589       1.837041
                                                         0.596768       0.432892
                                                         0.222222       0.067214
                                                         0.077078       0.004017
                          1       4    4dy2              7.884570       3.047350
                                                         3.894698       3.289529
                                                         1.513589       1.060616
                                                         0.596768       0.249930
                                                         0.222222       0.038806
                                                         0.077078       0.002319
                          1       4    4dyz              7.884570       5.278165
                                                         3.894698       5.697631
                                                         1.513589       1.837041
                                                         0.596768       0.432892
                                                         0.222222       0.067214
                                                         0.077078       0.004017
                          1       4    4dz2              7.884570       3.047350
                                                         3.894698       3.289529
                                                         1.513589       1.060616
                                                         0.596768       0.249930
                                                         0.222222       0.038806
                                                         0.077078       0.002319

     GTH Potential information for                                   GTH-PBE-q12

       Description:                       Goedecker-Teter-Hutter pseudopotential
                                           Goedecker et al., PRB 54, 1703 (1996)
                                          Hartwigsen et al., PRB 58, 3641 (1998)
                                                      Krack, TCA 114, 145 (2005)

       Gaussian exponent of the core charge distribution:               3.462604
       Electronic configuration (s p d ...):                           4   6   2

       Parameters of the local part of the GTH pseudopotential:

                          rloc        C1          C2          C3          C4
                        0.380000    8.711442   -0.700287

       Parameters of the non-local part of the GTH pseudopotential:

                   l      r(l)      h(i,j,l)

                   0    0.337771    2.575264    3.692971
                                    3.692971   -4.767605
                   1    0.242531   -4.630541    8.870875
                                    8.870875  -10.496161
                   2    0.243317   -9.406653

     A DFT+U correction is applied to atoms of this atomic kind:
       Angular quantum momentum number L:                                      2
       U(eff) = (U - J) value in [eV]:                                     9.987

  2. Atomic kind: O                                     Number of atoms:     180

     Orbital Basis Set                                            SZV-MOLOPT-GTH

       Number of orbital shell sets:                                           1
       Number of orbital shells:                                               2
       Number of primitive Cartesian functions:                                7
       Number of Cartesian basis functions:                                    4
       Number of spherical basis functions:                                    4
       Norm type:                                                              2

       Normalised Cartesian orbitals:

                        Set   Shell   Orbital            Exponent    Coefficient

                          1       1    2s               12.015955      -0.284499
                                                         5.108150      -0.322498
                                                         2.048398       0.148191
                                                         0.832382       0.295475
                                                         0.352316       0.150829
                                                         0.142977       0.015788
                                                         0.046761      -0.000019

                          1       2    3px              12.015955       1.192141
                                                         5.108150       1.354170
                                                         2.048398       0.897267
                                                         0.832382       0.408839
                                                         0.352316       0.116648
                                                         0.142977       0.022184
                                                         0.046761       0.000308
                          1       2    3py              12.015955       1.192141
                                                         5.108150       1.354170
                                                         2.048398       0.897267
                                                         0.832382       0.408839
                                                         0.352316       0.116648
                                                         0.142977       0.022184
                                                         0.046761       0.000308
                          1       2    3pz              12.015955       1.192141
                                                         5.108150       1.354170
                                                         2.048398       0.897267
                                                         0.832382       0.408839
                                                         0.352316       0.116648
                                                         0.142977       0.022184
                                                         0.046761       0.000308

     GTH Potential information for                                    GTH-PBE-q6

       Description:                       Goedecker-Teter-Hutter pseudopotential
                                           Goedecker et al., PRB 54, 1703 (1996)
                                          Hartwigsen et al., PRB 58, 3641 (1998)
                                                      Krack, TCA 114, 145 (2005)

       Gaussian exponent of the core charge distribution:               8.360253
       Electronic configuration (s p d ...):                               2   4

       Parameters of the local part of the GTH pseudopotential:

                          rloc        C1          C2          C3          C4
                        0.244554  -16.667215    2.487311

       Parameters of the non-local part of the GTH pseudopotential:

                   l      r(l)      h(i,j,l)

                   0    0.220956   18.337458
                   1    0.211332


 MOLECULE KIND INFORMATION


 All atoms are their own molecule, skipping detailed information


 TOTAL NUMBERS AND MAXIMUM NUMBERS

  Total number of            - Atomic kinds:                                   2
                             - Atoms:                                        270
                             - Shell sets:                                   270
                             - Shells:                                       720
                             - Primitive Cartesian functions:               1800
                             - Cartesian basis functions:                   1710
                             - Spherical basis functions:                   1620

  Maximum angular momentum of- Orbital basis functions:                        2
                             - Local part of the GTH pseudopotential:          2
                             - Non-local part of the GTH pseudopotential:      3


 MODULE QUICKSTEP:  ATOMIC COORDINATES IN angstrom

  Atom  Kind  Element       X           Y           Z          Z(eff)       Mass

       1     1 Ti  22   -0.000269    0.001170    0.001688     12.00      47.8670
       2     1 Ti  22    2.313579    2.309287    1.489375     12.00      47.8670
       3     1 Ti  22    4.632024    0.009020    0.000770     12.00      47.8670
       4     1 Ti  22    6.934561    2.311556    1.484137     12.00      47.8670
       5     1 Ti  22    9.245274    0.000833   -0.000565     12.00      47.8670
       6     1 Ti  22   11.555431    2.313655    1.489376     12.00      47.8670
       7     1 Ti  22    0.000585    4.622110    0.001659     12.00      47.8670
       8     1 Ti  22    2.312322    6.933815    1.489003     12.00      47.8670
       9     1 Ti  22    4.623836    4.622270   -0.000565     12.00      47.8670
      10     1 Ti  22    6.936657    6.932429    1.489377     12.00      47.8670
      11     1 Ti  22    9.237156    4.614154    0.000839     12.00      47.8670
      12     1 Ti  22   11.554727    6.931722    1.489089     12.00      47.8670
      13     1 Ti  22    0.000080    9.246077    0.000636     12.00      47.8670
      14     1 Ti  22    2.314396   11.560395    1.489080     12.00      47.8670
      15     1 Ti  22    4.624170    9.245729    0.001689     12.00      47.8670
      16     1 Ti  22    6.932290   11.559577    1.489375     12.00      47.8670
      17     1 Ti  22    9.245116    9.246582    0.001661     12.00      47.8670
      18     1 Ti  22   11.556817   11.558319    1.489003     12.00      47.8670
      19     1 Ti  22    0.000019    0.000628    2.977415     12.00      47.8670
      20     1 Ti  22    2.314698    2.307999    4.466972     12.00      47.8670
      21     1 Ti  22    4.632110    0.009107    2.977885     12.00      47.8670
      22     1 Ti  22    6.934607    2.311599    4.486667     12.00      47.8670
      23     1 Ti  22    9.244932    0.001192    2.979157     12.00      47.8670
      24     1 Ti  22   11.554809    2.315466    4.466873     12.00      47.8670
      25     1 Ti  22    0.000272    4.622599    2.977371     12.00      47.8670
      26     1 Ti  22    2.313108    6.933190    4.466475     12.00      47.8670
      27     1 Ti  22    4.624196    4.621928    2.979157     12.00      47.8670
      28     1 Ti  22    6.938468    6.931809    4.466873     12.00      47.8670
      29     1 Ti  22    9.237056    4.614054    2.977936     12.00      47.8670
      30     1 Ti  22   11.554359    6.931346    4.468947     12.00      47.8670
      31     1 Ti  22    0.000090    9.246088    2.977754     12.00      47.8670
      32     1 Ti  22    2.314819   11.560817    4.468958     12.00      47.8670
      33     1 Ti  22    4.623629    9.246017    2.977416     12.00      47.8670
      34     1 Ti  22    6.931009   11.560683    4.466971     12.00      47.8670
      35     1 Ti  22    9.245604    9.246270    2.977370     12.00      47.8670
      36     1 Ti  22   11.556197   11.559105    4.466474     12.00      47.8670
      37     1 Ti  22   -0.000717    0.001558    5.958420     12.00      47.8670
      38     1 Ti  22    2.314097    2.309129    7.452726     12.00      47.8670
      39     1 Ti  22    4.633923    0.010901    5.958741     12.00      47.8670
      40     1 Ti  22    6.934786    2.311772    7.469057     12.00      47.8670
      41     1 Ti  22    9.245283    0.002185    5.963135     12.00      47.8670
      42     1 Ti  22   11.556535    2.315524    7.452695     12.00      47.8670
      43     1 Ti  22    0.001894    4.622630    5.958474     12.00      47.8670
      44     1 Ti  22    2.313774    6.933881    7.452720     12.00      47.8670
      45     1 Ti  22    4.625193    4.622277    5.963134     12.00      47.8670
      46     1 Ti  22    6.938521    6.933534    7.452693     12.00      47.8670
      47     1 Ti  22    9.235421    4.612420    5.958747     12.00      47.8670
      48     1 Ti  22   11.552227    6.929200    7.454774     12.00      47.8670
      49     1 Ti  22    0.000131    9.246126    5.959709     12.00      47.8670
      50     1 Ti  22    2.317033   11.563032    7.454773     12.00      47.8670
      51     1 Ti  22    4.624561    9.245284    5.958420     12.00      47.8670
      52     1 Ti  22    6.932166   11.560067    7.452724     12.00      47.8670
      53     1 Ti  22    9.245647    9.247876    5.958472     12.00      47.8670
      54     1 Ti  22   11.556882   11.559760    7.452720     12.00      47.8670
      55     1 Ti  22    0.000431   -0.000468    8.947653     12.00      47.8670
      56     1 Ti  22    2.312085    2.310259   10.441087     12.00      47.8670
      57     1 Ti  22    4.636866    0.013826    8.947028     12.00      47.8670
      58     1 Ti  22    6.934809    2.311795   10.421097     12.00      47.8670
      59     1 Ti  22    9.242402    0.005853    8.948223     12.00      47.8670
      60     1 Ti  22   11.558499    2.314335   10.441143     12.00      47.8670
      61     1 Ti  22    0.001575    4.625462    8.947689     12.00      47.8670
      62     1 Ti  22    2.313053    6.934484   10.441173     12.00      47.8670
      63     1 Ti  22    4.628860    4.619391    8.948224     12.00      47.8670
      64     1 Ti  22    6.937332    6.935497   10.441144     12.00      47.8670
      65     1 Ti  22    9.232642    4.609643    8.947012     12.00      47.8670
      66     1 Ti  22   11.551791    6.928762   10.440217     12.00      47.8670
      67     1 Ti  22    0.000134    9.246127    8.947912     12.00      47.8670
      68     1 Ti  22    2.317469   11.563469   10.440211     12.00      47.8670
      69     1 Ti  22    4.622540    9.246439    8.947652     12.00      47.8670
      70     1 Ti  22    6.933296   11.558055   10.441087     12.00      47.8670
      71     1 Ti  22    9.248486    9.247540    8.947688     12.00      47.8670
      72     1 Ti  22   11.557487   11.559040   10.441173     12.00      47.8670
      73     1 Ti  22   -0.000481    0.000221   11.932643     12.00      47.8670
      74     1 Ti  22    2.314780    2.308042   13.420786     12.00      47.8670
      75     1 Ti  22    4.635415    0.012393   11.931385     12.00      47.8670
      76     1 Ti  22    6.934652    2.311643   13.390095     12.00      47.8670
      77     1 Ti  22    9.244296    0.003036   11.926295     12.00      47.8670
      78     1 Ti  22   11.554666    2.315388   13.420901     12.00      47.8670
      79     1 Ti  22    0.001744    4.624024   11.932620     12.00      47.8670
      80     1 Ti  22    2.313197    6.933290   13.421009     12.00      47.8670
      81     1 Ti  22    4.626040    4.621287   11.926295     12.00      47.8670
      82     1 Ti  22    6.938390    6.931665   13.420902     12.00      47.8670
      83     1 Ti  22    9.233968    4.610966   11.931418     12.00      47.8670
      84     1 Ti  22   11.553878    6.930863   13.418571     12.00      47.8670
      85     1 Ti  22    0.000108    9.246103   11.931048     12.00      47.8670
      86     1 Ti  22    2.315271   11.561271   13.418554     12.00      47.8670
      87     1 Ti  22    4.623222    9.245520   11.932644     12.00      47.8670
      88     1 Ti  22    6.931052   11.560766   13.420788     12.00      47.8670
      89     1 Ti  22    9.247040    9.247724   11.932624     12.00      47.8670
      90     1 Ti  22   11.556297   11.559194   13.421009     12.00      47.8670
      91     2 O    8    1.408044    1.409971   -0.000105      6.00      15.9994
      92     2 O    8    3.212659    3.213230   -0.000639      6.00      15.9994
      93     2 O    8    0.902564    3.720990    1.486225      6.00      15.9994
      94     2 O    8    3.718966    0.902605    1.486019      6.00      15.9994
      95     2 O    8    6.030027    1.407025    0.004783      6.00      15.9994
      96     2 O    8    7.839084    3.216082    0.004804      6.00      15.9994
      97     2 O    8    5.522833    3.723216    1.485897      6.00      15.9994
      98     2 O    8    8.346217    0.899832    1.485897      6.00      15.9994
      99     2 O    8   10.656417    1.409848   -0.000661      6.00      15.9994
     100     2 O    8   12.461052    3.213092   -0.000086      6.00      15.9994
     101     2 O    8   10.150093    3.720457    1.486015      6.00      15.9994
     102     2 O    8   12.966500    0.902077    1.486196      6.00      15.9994
     103     2 O    8    1.409552    6.032269   -0.000543      6.00      15.9994
     104     2 O    8    3.213800    7.836527   -0.000522      6.00      15.9994
     105     2 O    8    0.902717    8.343320    1.486246      6.00      15.9994
     106     2 O    8    3.719708    5.526353    1.485839      6.00      15.9994
     107     2 O    8    6.032848    6.033415   -0.000662      6.00      15.9994
     108     2 O    8    7.836092    7.838051   -0.000087      6.00      15.9994
     109     2 O    8    5.525077    8.343498    1.486196      6.00      15.9994
     110     2 O    8    8.343458    5.527092    1.486015      6.00      15.9994
     111     2 O    8   10.656482    6.033481    0.000205      6.00      15.9994
     112     2 O    8   12.460184    7.837182   -0.000523      6.00      15.9994
     113     2 O    8   10.146762    8.345196    1.486223      6.00      15.9994
     114     2 O    8   12.968197    5.523761    1.486224      6.00      15.9994
     115     2 O    8    1.408855   10.654854   -0.000531      6.00      15.9994
     116     2 O    8    3.212580   12.458580    0.000187      6.00      15.9994
     117     2 O    8    0.900869   12.968302    1.486201      6.00      15.9994
     118     2 O    8    3.722302   10.146868    1.486201      6.00      15.9994
     119     2 O    8    6.032973   10.654042   -0.000105      6.00      15.9994
     120     2 O    8    7.836232   12.458657   -0.000639      6.00      15.9994
     121     2 O    8    5.525606   12.964965    1.486019      6.00      15.9994
     122     2 O    8    8.343992   10.148562    1.486225      6.00      15.9994
     123     2 O    8   10.655270   10.655551   -0.000543      6.00      15.9994
     124     2 O    8   12.459528   12.459800   -0.000522      6.00      15.9994
     125     2 O    8   10.149355   12.965706    1.485839      6.00      15.9994
     126     2 O    8   12.966321   10.148716    1.486246      6.00      15.9994
     127     2 O    8    1.408039    1.409961    2.972821      6.00      15.9994
     128     2 O    8    3.212408    3.213131    2.973247      6.00      15.9994
     129     2 O    8    0.902035    3.721104    4.462805      6.00      15.9994
     130     2 O    8    3.715026    0.900798    4.457470      6.00      15.9994
     131     2 O    8    6.030202    1.407200    2.968552      6.00      15.9994
     132     2 O    8    7.838898    3.215897    2.968560      6.00      15.9994
     133     2 O    8    5.521592    3.724500    4.459699      6.00      15.9994
     134     2 O    8    8.347503    0.898591    4.459696      6.00      15.9994
     135     2 O    8   10.656667    1.409942    2.973276      6.00      15.9994
     136     2 O    8   12.461073    3.213130    2.972786      6.00      15.9994
     137     2 O    8   10.154226    3.722377    4.457426      6.00      15.9994
     138     2 O    8   12.967156    0.902115    4.462671      6.00      15.9994
     139     2 O    8    1.409492    6.032430    2.973565      6.00      15.9994
     140     2 O    8    3.213605    7.836541    2.973591      6.00      15.9994
     141     2 O    8    0.902555    8.343446    4.462376      6.00      15.9994
     142     2 O    8    3.718824    5.527245    4.460568      6.00      15.9994
     143     2 O    8    6.032943    6.033665    2.973276      6.00      15.9994
     144     2 O    8    7.836131    7.838072    2.972786      6.00      15.9994
     145     2 O    8    5.525115    8.344156    4.462671      6.00      15.9994
     146     2 O    8    8.345378    5.531225    4.457426      6.00      15.9994
     147     2 O    8   10.656638    6.033637    2.972706      6.00      15.9994
     148     2 O    8   12.460230    7.837228    2.973180      6.00      15.9994
     149     2 O    8   10.146605    8.345562    4.462740      6.00      15.9994
     150     2 O    8   12.968565    5.523603    4.462742      6.00      15.9994
     151     2 O    8    1.408798   10.654797    2.973160      6.00      15.9994
     152     2 O    8    3.212441   12.458441    2.972669      6.00      15.9994
     153     2 O    8    0.900578   12.968515    4.462590      6.00      15.9994
     154     2 O    8    3.722516   10.146578    4.462590      6.00      15.9994
     155     2 O    8    6.032961   10.654037    2.972821      6.00      15.9994
     156     2 O    8    7.836132   12.458406    2.973248      6.00      15.9994
     157     2 O    8    5.523798   12.961020    4.457469      6.00      15.9994
     158     2 O    8    8.344105   10.148032    4.462804      6.00      15.9994
     159     2 O    8   10.655432   10.655491    2.973565      6.00      15.9994
     160     2 O    8   12.459542   12.459605    2.973590      6.00      15.9994
     161     2 O    8   10.150248   12.964823    4.460567      6.00      15.9994
     162     2 O    8   12.966448   10.148554    4.462375      6.00      15.9994
     163     2 O    8    1.407453    1.410054    5.953965      6.00      15.9994
     164     2 O    8    3.211725    3.213006    5.952154      6.00      15.9994
     165     2 O    8    0.902524    3.720813    7.451443      6.00      15.9994
     166     2 O    8    3.714261    0.901012    7.440089      6.00      15.9994
     167     2 O    8    6.016516    1.393499    5.914275      6.00      15.9994
     168     2 O    8    7.852845    3.229839    5.914135      6.00      15.9994
     169     2 O    8    5.513648    3.733000    7.443063      6.00      15.9994
     170     2 O    8    8.356008    0.890642    7.443059      6.00      15.9994
     171     2 O    8   10.657462    1.410129    5.951887      6.00      15.9994
     172     2 O    8   12.461778    3.213120    5.954096      6.00      15.9994
     173     2 O    8   10.155104    3.722280    7.439974      6.00      15.9994
     174     2 O    8   12.966849    0.902437    7.451062      6.00      15.9994
     175     2 O    8    1.409196    6.032506    5.954392      6.00      15.9994
     176     2 O    8    3.213607    7.836892    5.954061      6.00      15.9994
     177     2 O    8    0.902747    8.343504    7.450034      6.00      15.9994
     178     2 O    8    3.715833    5.530638    7.446497      6.00      15.9994
     179     2 O    8    6.033130    6.034460    5.951886      6.00      15.9994
     180     2 O    8    7.836121    7.838775    5.954096      6.00      15.9994
     181     2 O    8    5.525436    8.343846    7.451059      6.00      15.9994
     182     2 O    8    8.345280    5.532101    7.439974      6.00      15.9994
     183     2 O    8   10.658872    6.035869    5.951319      6.00      15.9994
     184     2 O    8   12.460899    7.837896    5.953389      6.00      15.9994
     185     2 O    8   10.146823    8.345340    7.450712      6.00      15.9994
     186     2 O    8   12.968344    5.523819    7.450713      6.00      15.9994
     187     2 O    8    1.408186   10.654186    5.953202      6.00      15.9994
     188     2 O    8    3.210280   12.456280    5.951270      6.00      15.9994
     189     2 O    8    0.900860   12.968386    7.450388      6.00      15.9994
     190     2 O    8    3.722386   10.146860    7.450385      6.00      15.9994
     191     2 O    8    6.033057   10.653449    5.953966      6.00      15.9994
     192     2 O    8    7.836009   12.457722    5.952149      6.00      15.9994
     193     2 O    8    5.524014   12.960253    7.440086      6.00      15.9994
     194     2 O    8    8.343817   10.148521    7.451437      6.00      15.9994
     195     2 O    8   10.655510   10.655194    5.954389      6.00      15.9994
     196     2 O    8   12.459894   12.459607    5.954062      6.00      15.9994
     197     2 O    8   10.153641   12.961829    7.446495      6.00      15.9994
     198     2 O    8   12.966505   10.148744    7.450034      6.00      15.9994
     199     2 O    8    1.409213    1.409358    8.948146      6.00      15.9994
     200     2 O    8    3.212897    3.212433    8.944858      6.00      15.9994
     201     2 O    8    0.902745    3.720953   10.440997      6.00      15.9994
     202     2 O    8    3.718499    0.902285   10.441526      6.00      15.9994
     203     2 O    8    5.996843    1.373805    8.923078      6.00      15.9994
     204     2 O    8    7.872809    3.249797    8.923007      6.00      15.9994
     205     2 O    8    5.511161    3.735533   10.439119      6.00      15.9994
     206     2 O    8    8.358543    0.888155   10.439119      6.00      15.9994
     207     2 O    8   10.656417    1.410766    8.944382      6.00      15.9994
     208     2 O    8   12.460021    3.213788    8.947949      6.00      15.9994
     209     2 O    8   10.150875    3.720964   10.441436      6.00      15.9994
     210     2 O    8   12.966582    0.902391   10.440883      6.00      15.9994
     211     2 O    8    1.408970    6.032724    8.948081      6.00      15.9994
     212     2 O    8    3.213502    7.837270    8.948062      6.00      15.9994
     213     2 O    8    0.902394    8.343768   10.441429      6.00      15.9994
     214     2 O    8    3.716054    5.530485   10.440458      6.00      15.9994
     215     2 O    8    6.033766    6.033415    8.944381      6.00      15.9994
     216     2 O    8    7.836790    7.837018    8.947945      6.00      15.9994
     217     2 O    8    5.525392    8.343581   10.440881      6.00      15.9994
     218     2 O    8    8.343964    5.527873   10.441435      6.00      15.9994
     219     2 O    8   10.659858    6.036855    8.944970      6.00      15.9994
     220     2 O    8   12.461251    7.838247    8.947581      6.00      15.9994
     221     2 O    8   10.146482    8.345296   10.441303      6.00      15.9994
     222     2 O    8   12.968299    5.523480   10.441304      6.00      15.9994
     223     2 O    8    1.407882   10.653881    8.947418      6.00      15.9994
     224     2 O    8    3.209307   12.455304    8.944869      6.00      15.9994
     225     2 O    8    0.900897   12.968724   10.441216      6.00      15.9994
     226     2 O    8    3.722726   10.146897   10.441214      6.00      15.9994
     227     2 O    8    6.032363   10.655207    8.948139      6.00      15.9994
     228     2 O    8    7.835438   12.458891    8.944851      6.00      15.9994
     229     2 O    8    5.525287   12.964488   10.441525      6.00      15.9994
     230     2 O    8    8.343955   10.148742   10.440995      6.00      15.9994
     231     2 O    8   10.655727   10.654965    8.948080      6.00      15.9994
     232     2 O    8   12.460271   12.459500    8.948064      6.00      15.9994
     233     2 O    8   10.153488   12.962050   10.440457      6.00      15.9994
     234     2 O    8   12.966769   10.148391   10.441429      6.00      15.9994
     235     2 O    8    1.408787    1.409914   11.930603      6.00      15.9994
     236     2 O    8    3.212651    3.212716   11.931614      6.00      15.9994
     237     2 O    8    0.902162    3.720782   13.419221      6.00      15.9994
     238     2 O    8    3.714137    0.900248   13.423425      6.00      15.9994
     239     2 O    8    6.010983    1.387957   11.976530      6.00      15.9994
     240     2 O    8    7.858480    3.235471   11.976622      6.00      15.9994
     241     2 O    8    5.521749    3.724393   13.420617      6.00      15.9994
     242     2 O    8    8.347397    0.898747   13.420618      6.00      15.9994
     243     2 O    8   10.656567    1.410479   11.931596      6.00      15.9994
     244     2 O    8   12.460393    3.213224   11.930525      6.00      15.9994
     245     2 O    8   10.155062    3.722905   13.423439      6.00      15.9994
     246     2 O    8   12.966989    0.902365   13.419205      6.00      15.9994
     247     2 O    8    1.409349    6.032544   11.931569      6.00      15.9994
     248     2 O    8    3.213602    7.836827   11.931573      6.00      15.9994
     249     2 O    8    0.902677    8.343398   13.419640      6.00      15.9994
     250     2 O    8    3.719161    5.527004   13.419723      6.00      15.9994
     251     2 O    8    6.033480    6.033566   11.931595      6.00      15.9994
     252     2 O    8    7.836226    7.837391   11.930523      6.00      15.9994
     253     2 O    8    5.525366    8.343988   13.419204      6.00      15.9994
     254     2 O    8    8.345905    5.532060   13.423438      6.00      15.9994
     255     2 O    8   10.658640    6.035638   11.932212      6.00      15.9994
     256     2 O    8   12.460559    7.837557   11.931472      6.00      15.9994
     257     2 O    8   10.146659    8.345258   13.419438      6.00      15.9994
     258     2 O    8   12.968260    5.523658   13.419438      6.00      15.9994
     259     2 O    8    1.408518   10.654517   11.931432      6.00      15.9994
     260     2 O    8    3.210468   12.456466   11.932180      6.00      15.9994
     261     2 O    8    0.900846   12.968452   13.419413      6.00      15.9994
     262     2 O    8    3.722452   10.146845   13.419413      6.00      15.9994
     263     2 O    8    6.032917   10.654783   11.930601      6.00      15.9994
     264     2 O    8    7.835719   12.458647   11.931612      6.00      15.9994
     265     2 O    8    5.523249   12.960130   13.423427      6.00      15.9994
     266     2 O    8    8.343783   10.148159   13.419220      6.00      15.9994
     267     2 O    8   10.655546   10.655346   11.931569      6.00      15.9994
     268     2 O    8   12.459828   12.459600   11.931574      6.00      15.9994
     269     2 O    8   10.150006   12.965159   13.419723      6.00      15.9994
     270     2 O    8   12.966399   10.148676   13.419640      6.00      15.9994




 SCF PARAMETERS         Density guess:                                   RESTART
                        --------------------------------------------------------
                        max_scf:                                             500
                        max_scf_history:                                       0
                        max_diis:                                              4
                        --------------------------------------------------------
                        eps_scf:                                        1.00E-05
                        eps_scf_history:                                0.00E+00
                        eps_diis:                                       5.00E-01
                        eps_eigval:                                     1.00E-05
                        --------------------------------------------------------
                        level_shift [a.u.]:                                 0.00
                        --------------------------------------------------------
                        Mixing method:                            BROYDEN_MIXING
                                                charge density mixing in g-space
                        --------------------------------------------------------
                        Outer loop SCF in use 
                        No variables optimised in outer loop
                        eps_scf                                         1.00E-05
                        max_scf                                              500
                        No outer loop optimization
                        step_size                                       5.00E-01

 PW_GRID| Information for grid number                                          1
 PW_GRID| Grid distributed over                                    40 processors
 PW_GRID| Real space group dimensions                                    40    1
 PW_GRID| the grid is blocked:                                                NO
 PW_GRID| Cutoff [a.u.]                                                    325.0
 PW_GRID| spherical cutoff:                                                   NO
 PW_GRID|   Bounds   1           -108     107                Points:         216
 PW_GRID|   Bounds   2           -108     107                Points:         216
 PW_GRID|   Bounds   3           -115     115                Points:         231
 PW_GRID| Volume element (a.u.^3)  0.1795E-02     Volume (a.u.^3)     19349.8300
 PW_GRID| Grid span                                                    FULLSPACE
 PW_GRID|   Distribution                         Average         Max         Min
 PW_GRID|   G-Vectors                           269438.4      269568      269352
 PW_GRID|   G-Rays                                1247.4        1248        1247
 PW_GRID|   Real Space Points                   269438.4      299376      249480

 PW_GRID| Information for grid number                                          2
 PW_GRID| Grid distributed over                                    40 processors
 PW_GRID| Real space group dimensions                                    40    1
 PW_GRID| the grid is blocked:                                                NO
 PW_GRID| Cutoff [a.u.]                                                    108.3
 PW_GRID| spherical cutoff:                                                   NO
 PW_GRID|   Bounds   1            -63      62                Points:         126
 PW_GRID|   Bounds   2            -63      62                Points:         126
 PW_GRID|   Bounds   3            -66      65                Points:         132
 PW_GRID| Volume element (a.u.^3)  0.9233E-02     Volume (a.u.^3)     19349.8300
 PW_GRID| Grid span                                                    FULLSPACE
 PW_GRID|   Distribution                         Average         Max         Min
 PW_GRID|   G-Vectors                            52390.8       52794       52290
 PW_GRID|   G-Rays                                 415.8         419         415
 PW_GRID|   Real Space Points                    52390.8       66528       49896

 PW_GRID| Information for grid number                                          3
 PW_GRID| Grid distributed over                                    40 processors
 PW_GRID| Real space group dimensions                                    40    1
 PW_GRID| the grid is blocked:                                                NO
 PW_GRID| Cutoff [a.u.]                                                     36.1
 PW_GRID| spherical cutoff:                                                   NO
 PW_GRID|   Bounds   1            -36      35                Points:          72
 PW_GRID|   Bounds   2            -36      35                Points:          72
 PW_GRID|   Bounds   3            -38      38                Points:          77
 PW_GRID| Volume element (a.u.^3)  0.4848E-01     Volume (a.u.^3)     19349.8300
 PW_GRID| Grid span                                                    FULLSPACE
 PW_GRID|   Distribution                         Average         Max         Min
 PW_GRID|   G-Vectors                             9979.2       10008        9936
 PW_GRID|   G-Rays                                 138.6         139         138
 PW_GRID|   Real Space Points                     9979.2       11088        5544

 PW_GRID| Information for grid number                                          4
 PW_GRID| Grid distributed over                                    40 processors
 PW_GRID| Real space group dimensions                                    40    1
 PW_GRID| the grid is blocked:                                                NO
 PW_GRID| Cutoff [a.u.]                                                     12.0
 PW_GRID| spherical cutoff:                                                   NO
 PW_GRID|   Bounds   1            -21      20                Points:          42
 PW_GRID|   Bounds   2            -21      20                Points:          42
 PW_GRID|   Bounds   3            -22      21                Points:          44
 PW_GRID| Volume element (a.u.^3)  0.2493         Volume (a.u.^3)     19349.8300
 PW_GRID| Grid span                                                    FULLSPACE
 PW_GRID|   Distribution                         Average         Max         Min
 PW_GRID|   G-Vectors                             1940.4        2058        1848
 PW_GRID|   G-Rays                                  46.2          49          44
 PW_GRID|   Real Space Points                     1940.4        3696        1848

 PW_GRID| Information for grid number                                          5
 PW_GRID| Grid distributed over                                    40 processors
 PW_GRID| Real space group dimensions                                     5    8
 PW_GRID| the grid is blocked:                                                NO
 PW_GRID| Cutoff [a.u.]                                                      4.0
 PW_GRID| spherical cutoff:                                                   NO
 PW_GRID|   Bounds   1            -12      11                Points:          24
 PW_GRID|   Bounds   2            -12      11                Points:          24
 PW_GRID|   Bounds   3            -12      12                Points:          25
 PW_GRID| Volume element (a.u.^3)   1.344         Volume (a.u.^3)     19349.8300
 PW_GRID| Grid span                                                    FULLSPACE
 PW_GRID|   Distribution                         Average         Max         Min
 PW_GRID|   G-Vectors                              360.0         408         336
 PW_GRID|   G-Rays                                  15.0          17          14
 PW_GRID|   Real Space Points                      360.0         375         300

 PW_GRID| Information for grid number                                          6
 PW_GRID| Grid distributed over                                    40 processors
 PW_GRID| Real space group dimensions                                     5    8
 PW_GRID| the grid is blocked:                                                NO
 PW_GRID| Cutoff [a.u.]                                                      1.3
 PW_GRID| spherical cutoff:                                                   NO
 PW_GRID|   Bounds   1             -7       6                Points:          14
 PW_GRID|   Bounds   2             -7       6                Points:          14
 PW_GRID|   Bounds   3             -7       7                Points:          15
 PW_GRID| Volume element (a.u.^3)   6.582         Volume (a.u.^3)     19349.8300
 PW_GRID| Grid span                                                    FULLSPACE
 PW_GRID|   Distribution                         Average         Max         Min
 PW_GRID|   G-Vectors                               73.5          98          56
 PW_GRID|   G-Rays                                   5.2           7           4
 PW_GRID|   Real Space Points                       73.5          90          30

 PW_GRID| Information for grid number                                          7
 PW_GRID| Grid distributed over                                    40 processors
 PW_GRID| Real space group dimensions                                     5    8
 PW_GRID| the grid is blocked:                                                NO
 PW_GRID| Cutoff [a.u.]                                                      0.4
 PW_GRID| spherical cutoff:                                                   NO
 PW_GRID|   Bounds   1             -3       3                Points:           7
 PW_GRID|   Bounds   2             -3       3                Points:           7
 PW_GRID|   Bounds   3             -4       4                Points:           9
 PW_GRID| Volume element (a.u.^3)   43.88         Volume (a.u.^3)     19349.8300
 PW_GRID| Grid span                                                    FULLSPACE
 PW_GRID|   Distribution                         Average         Max         Min
 PW_GRID|   G-Vectors                               11.0          28           0
 PW_GRID|   G-Rays                                   1.6           4           0
 PW_GRID|   Real Space Points                       11.0          18           0

 PW_GRID| Information for grid number                                          8
 PW_GRID| Grid distributed over                                    40 processors
 PW_GRID| Real space group dimensions                                     5    8
 PW_GRID| the grid is blocked:                                                NO
 PW_GRID| Cutoff [a.u.]                                                      0.1
 PW_GRID| spherical cutoff:                                                   NO
 PW_GRID|   Bounds   1             -2       2                Points:           5
 PW_GRID|   Bounds   2             -2       2                Points:           5
 PW_GRID|   Bounds   3             -2       2                Points:           5
 PW_GRID| Volume element (a.u.^3)   154.8         Volume (a.u.^3)     19349.8300
 PW_GRID| Grid span                                                    FULLSPACE
 PW_GRID|   Distribution                         Average         Max         Min
 PW_GRID|   G-Vectors                                3.1          10           0
 PW_GRID|   G-Rays                                   0.6           2           0
 PW_GRID|   Real Space Points                        3.1           5           0

 PW_GRID| Information for grid number                                          9
 PW_GRID| Grid distributed over                                    40 processors
 PW_GRID| Real space group dimensions                                     5    8
 PW_GRID| the grid is blocked:                                                NO
 PW_GRID| Cutoff [a.u.]                                                      0.0
 PW_GRID| spherical cutoff:                                                   NO
 PW_GRID|   Bounds   1             -1       1                Points:           3
 PW_GRID|   Bounds   2             -1       1                Points:           3
 PW_GRID|   Bounds   3             -1       1                Points:           3
 PW_GRID| Volume element (a.u.^3)   716.7         Volume (a.u.^3)     19349.8300
 PW_GRID| Grid span                                                    FULLSPACE
 PW_GRID|   Distribution                         Average         Max         Min
 PW_GRID|   G-Vectors                                0.7           3           0
 PW_GRID|   G-Rays                                   0.2           1           0
 PW_GRID|   Real Space Points                        0.7           3           0

 PW_GRID| Information for grid number                                         10
 PW_GRID| Grid distributed over                                    40 processors
 PW_GRID| Real space group dimensions                                     5    8
 PW_GRID| the grid is blocked:                                                NO
 PW_GRID| Cutoff [a.u.]                                                      0.0
 PW_GRID| spherical cutoff:                                                   NO
 PW_GRID|   Bounds   1              0       0                Points:           1
 PW_GRID|   Bounds   2              0       0                Points:           1
 PW_GRID|   Bounds   3              0       0                Points:           1
 PW_GRID| Volume element (a.u.^3)  0.1935E+05     Volume (a.u.^3)     19349.8300
 PW_GRID| Grid span                                                    FULLSPACE
 PW_GRID|   Distribution                         Average         Max         Min
 PW_GRID|   G-Vectors                                0.0           1           0
 PW_GRID|   G-Rays                                   0.0           1           0
 PW_GRID|   Real Space Points                        0.0           1           0

 POISSON| Solver                                                        PERIODIC
 POISSON| Periodicity                                                        XYZ

 RS_GRID| Information for grid number                                          1
 RS_GRID|   Bounds   1           -108     107                Points:         216
 RS_GRID|   Bounds   2           -108     107                Points:         216
 RS_GRID|   Bounds   3           -115     115                Points:         231
 RS_GRID| Real space distribution over                                  5 groups
 RS_GRID| Real space distribution along direction                              2
 RS_GRID| Border size                                                         27
 RS_GRID| Real space distribution over                                  8 groups
 RS_GRID| Real space distribution along direction                              3
 RS_GRID| Border size                                                         27
 RS_GRID|   Distribution                         Average         Max         Min
 RS_GRID|   Planes                                  97.2          98          97
 RS_GRID|   Distribution                         Average         Max         Min
 RS_GRID|   Planes                                  82.9          83          82

 RS_GRID| Information for grid number                                          2
 RS_GRID|   Bounds   1            -63      62                Points:         126
 RS_GRID|   Bounds   2            -63      62                Points:         126
 RS_GRID|   Bounds   3            -66      65                Points:         132
 RS_GRID| Real space distribution over                                  5 groups
 RS_GRID| Real space distribution along direction                              2
 RS_GRID| Border size                                                         26
 RS_GRID| Real space distribution over                                  8 groups
 RS_GRID| Real space distribution along direction                              3
 RS_GRID| Border size                                                         26
 RS_GRID|   Distribution                         Average         Max         Min
 RS_GRID|   Planes                                  77.2          78          77
 RS_GRID|   Distribution                         Average         Max         Min
 RS_GRID|   Planes                                  68.5          69          68

 RS_GRID| Information for grid number                                          3
 RS_GRID|   Bounds   1            -36      35                Points:          72
 RS_GRID|   Bounds   2            -36      35                Points:          72
 RS_GRID|   Bounds   3            -38      38                Points:          77
 RS_GRID| Real space fully replicated
 RS_GRID| Group size                                                           1

 RS_GRID| Information for grid number                                          4
 RS_GRID|   Bounds   1            -21      20                Points:          42
 RS_GRID|   Bounds   2            -21      20                Points:          42
 RS_GRID|   Bounds   3            -22      21                Points:          44
 RS_GRID| Real space fully replicated
 RS_GRID| Group size                                                           1

 RS_GRID| Information for grid number                                          5
 RS_GRID|   Bounds   1            -12      11                Points:          24
 RS_GRID|   Bounds   2            -12      11                Points:          24
 RS_GRID|   Bounds   3            -12      12                Points:          25
 RS_GRID| Real space fully replicated
 RS_GRID| Group size                                                           1

 RS_GRID| Information for grid number                                          6
 RS_GRID|   Bounds   1             -7       6                Points:          14
 RS_GRID|   Bounds   2             -7       6                Points:          14
 RS_GRID|   Bounds   3             -7       7                Points:          15
 RS_GRID| Real space fully replicated
 RS_GRID| Group size                                                           1

 RS_GRID| Information for grid number                                          7
 RS_GRID|   Bounds   1             -3       3                Points:           7
 RS_GRID|   Bounds   2             -3       3                Points:           7
 RS_GRID|   Bounds   3             -4       4                Points:           9
 RS_GRID| Real space fully replicated
 RS_GRID| Group size                                                           1

 RS_GRID| Information for grid number                                          8
 RS_GRID|   Bounds   1             -2       2                Points:           5
 RS_GRID|   Bounds   2             -2       2                Points:           5
 RS_GRID|   Bounds   3             -2       2                Points:           5
 RS_GRID| Real space fully replicated
 RS_GRID| Group size                                                           1

 RS_GRID| Information for grid number                                          9
 RS_GRID|   Bounds   1             -1       1                Points:           3
 RS_GRID|   Bounds   2             -1       1                Points:           3
 RS_GRID|   Bounds   3             -1       1                Points:           3
 RS_GRID| Real space fully replicated
 RS_GRID| Group size                                                           1

 RS_GRID| Information for grid number                                         10
 RS_GRID|   Bounds   1              0       0                Points:           1
 RS_GRID|   Bounds   2              0       0                Points:           1
 RS_GRID|   Bounds   3              0       0                Points:           1
 RS_GRID| Real space fully replicated
 RS_GRID| Group size                                                           1

 Spin 1

 Number of electrons:                                                       1081
 Number of occupied orbitals:                                               1081
 Number of molecular orbitals:                                              1081

 Spin 2

 Number of electrons:                                                       1080
 Number of occupied orbitals:                                               1080
 Number of molecular orbitals:                                              1080

 Number of orbital functions:                                               1620
 Number of independent orbital functions:                                   1620

 Extrapolation method: initial_guess


 SCF WAVEFUNCTION OPTIMIZATION

  Step     Update method      Time    Convergence         Total energy    Change
  ------------------------------------------------------------------------------
     1 NoMix/Diag. 0.40E+00    6.0     0.01206409     -8111.7669612283 -8.11E+03
     2 Broy./Diag. 0.40E+00    9.6     0.00678724     -8111.7631160749  3.85E-03
     3 Broy./Diag. 0.40E+00    9.6     0.00185729     -8111.7720790331 -8.96E-03
     4 Broy./Diag. 0.40E+00   10.1     0.00084986     -8111.7777514570 -5.67E-03
     5 Broy./Diag. 0.40E+00    9.6     0.00027136     -8111.7772453959  5.06E-04
     6 Broy./Diag. 0.40E+00    9.7     0.00024174     -8111.7728326342  4.41E-03
     7 Broy./Diag. 0.40E+00    9.7     0.00015197     -8111.7720147644  8.18E-04
     8 Broy./Diag. 0.40E+00    9.6     0.00005280     -8111.7718567948  1.58E-04
     9 Broy./Diag. 0.40E+00    9.8     0.00004568     -8111.7715662560  2.91E-04
    10 Broy./Diag. 0.40E+00    9.8     0.00001848     -8111.7717383838 -1.72E-04
    11 Broy./Diag. 0.40E+00    9.7     0.00001448     -8111.7718258039 -8.74E-05
    12 Broy./Diag. 0.40E+00    9.8     0.00000861     -8111.7719001363 -7.43E-05

  *** SCF run converged in    12 steps ***


  Electronic density on regular grids:      -2160.9999999994        0.0000000006
  Core density on regular grids:             2159.9999999994       -0.0000000006
  Total charge density on r-space grids:       -1.0000000000
  Total charge density g-space grids:          -1.0000000000

  Overlap energy of the core charge distribution:               0.00000000000198
  Self energy of the core charge distribution:             -17095.63438313942970
  Core Hamiltonian energy:                                   4650.80673879191545
  Hartree energy:                                            5621.21812609991503
  Exchange-correlation energy:                              -1307.30605773837965

  DFT+U energy:                                                19.14367584969612

  Total energy:                                             -8111.77190013628024

  outer SCF iter =    1 RMS gradient =   0.86E-05 energy =      -8111.7719001363
  outer SCF loop converged in   1 iterations or   12 steps


  Integrated absolute spin density  :                               1.0874874570
  Ideal and single determinant S**2 :                    0.750000       0.754620

 !-----------------------------------------------------------------------------!
                     Mulliken Population Analysis

 #  Atom  Element  Kind  Atomic population (alpha,beta) Net charge  Spin moment
       1     Ti       1         5.244737     5.244742     1.510521    -0.000006
       2     Ti       1         5.244703     5.244702     1.510595     0.000002
       3     Ti       1         5.244813     5.245012     1.510176    -0.000199
       4     Ti       1         5.245488     5.244944     1.509568     0.000544
       5     Ti       1         5.244746     5.244769     1.510486    -0.000023
       6     Ti       1         5.244709     5.244708     1.510583     0.000002
       7     Ti       1         5.244734     5.244739     1.510527    -0.000005
       8     Ti       1         5.244814     5.244829     1.510357    -0.000015
       9     Ti       1         5.244746     5.244769     1.510486    -0.000023
      10     Ti       1         5.244709     5.244708     1.510583     0.000002
      11     Ti       1         5.244811     5.245011     1.510178    -0.000199
      12     Ti       1         5.245354     5.245364     1.509282    -0.000009
      13     Ti       1         5.245106     5.245091     1.509802     0.000015
      14     Ti       1         5.245357     5.245367     1.509276    -0.000009
      15     Ti       1         5.244737     5.244742     1.510521    -0.000006
      16     Ti       1         5.244703     5.244702     1.510595     0.000002
      17     Ti       1         5.244734     5.244739     1.510527    -0.000005
      18     Ti       1         5.244814     5.244829     1.510356    -0.000015
      19     Ti       1         5.244755     5.244760     1.510485    -0.000005
      20     Ti       1         5.244825     5.244823     1.510352     0.000003
      21     Ti       1         5.245108     5.245111     1.509782    -0.000003
      22     Ti       1         5.246156     5.245499     1.508345     0.000657
      23     Ti       1         5.244691     5.244694     1.510616    -0.000003
      24     Ti       1         5.244824     5.244821     1.510356     0.000003
      25     Ti       1         5.244753     5.244758     1.510489    -0.000005
      26     Ti       1         5.244710     5.244727     1.510564    -0.000017
      27     Ti       1         5.244691     5.244694     1.510616    -0.000003
      28     Ti       1         5.244824     5.244821     1.510355     0.000003
      29     Ti       1         5.245111     5.245113     1.509776    -0.000003
      30     Ti       1         5.245297     5.245302     1.509401    -0.000005
      31     Ti       1         5.245047     5.245056     1.509897    -0.000009
      32     Ti       1         5.245298     5.245302     1.509400    -0.000005
      33     Ti       1         5.244755     5.244760     1.510485    -0.000005
      34     Ti       1         5.244825     5.244823     1.510352     0.000003
      35     Ti       1         5.244753     5.244758     1.510489    -0.000005
      36     Ti       1         5.244710     5.244727     1.510564    -0.000017
      37     Ti       1         5.244915     5.244920     1.510165    -0.000006
      38     Ti       1         5.245337     5.245357     1.509306    -0.000019
      39     Ti       1         5.244775     5.244888     1.510337    -0.000113
      40     Ti       1         5.246093     5.250610     1.503297    -0.004517
      41     Ti       1         5.245514     5.245532     1.508955    -0.000018
      42     Ti       1         5.245321     5.245340     1.509339    -0.000019
      43     Ti       1         5.244915     5.244921     1.510164    -0.000006
      44     Ti       1         5.244815     5.244796     1.510389     0.000019
      45     Ti       1         5.245514     5.245532     1.508954    -0.000018
      46     Ti       1         5.245321     5.245340     1.509339    -0.000019
      47     Ti       1         5.244782     5.244895     1.510323    -0.000113
      48     Ti       1         5.245841     5.245574     1.508585     0.000267
      49     Ti       1         5.245126     5.245107     1.509767     0.000019
      50     Ti       1         5.245847     5.245579     1.508574     0.000268
      51     Ti       1         5.244915     5.244921     1.510165    -0.000006
      52     Ti       1         5.245337     5.245356     1.509306    -0.000019
      53     Ti       1         5.244915     5.244921     1.510164    -0.000006
      54     Ti       1         5.244815     5.244796     1.510389     0.000019
      55     Ti       1         5.244859     5.244856     1.510285     0.000004
      56     Ti       1         5.244527     5.244567     1.510906    -0.000040
      57     Ti       1         5.248265     5.243514     1.508222     0.004751
      58     Ti       1         5.786009     4.791081     1.422909     0.994928
      59     Ti       1         5.247117     5.245699     1.507184     0.001419
      60     Ti       1         5.244520     5.244560     1.510920    -0.000040
      61     Ti       1         5.244859     5.244856     1.510285     0.000004
      62     Ti       1         5.244693     5.244542     1.510765     0.000151
      63     Ti       1         5.247118     5.245699     1.507183     0.001419
      64     Ti       1         5.244520     5.244560     1.510920    -0.000040
      65     Ti       1         5.248259     5.243515     1.508226     0.004744
      66     Ti       1         5.246415     5.245200     1.508386     0.001215
      67     Ti       1         5.245353     5.245022     1.509625     0.000331
      68     Ti       1         5.246426     5.245210     1.508364     0.001216
      69     Ti       1         5.244859     5.244856     1.510285     0.000004
      70     Ti       1         5.244527     5.244567     1.510906    -0.000040
      71     Ti       1         5.244859     5.244856     1.510285     0.000004
      72     Ti       1         5.244693     5.244542     1.510765     0.000151
      73     Ti       1         5.244634     5.244629     1.510738     0.000005
      74     Ti       1         5.244555     5.244567     1.510878    -0.000013
      75     Ti       1         5.247932     5.243796     1.508272     0.004136
      76     Ti       1         5.243142     5.246832     1.510025    -0.003690
      77     Ti       1         5.246022     5.244709     1.509269     0.001313
      78     Ti       1         5.244557     5.244570     1.510874    -0.000013
      79     Ti       1         5.244639     5.244634     1.510728     0.000005
      80     Ti       1         5.244834     5.244811     1.510355     0.000024
      81     Ti       1         5.246023     5.244709     1.509268     0.001313
      82     Ti       1         5.244557     5.244570     1.510874    -0.000013
      83     Ti       1         5.247927     5.243793     1.508280     0.004134
      84     Ti       1         5.245438     5.245210     1.509352     0.000228
      85     Ti       1         5.245202     5.244890     1.509908     0.000312
      86     Ti       1         5.245445     5.245216     1.509339     0.000228
      87     Ti       1         5.244634     5.244629     1.510738     0.000005
      88     Ti       1         5.244554     5.244567     1.510878    -0.000013
      89     Ti       1         5.244638     5.244633     1.510728     0.000005
      90     Ti       1         5.244834     5.244811     1.510355     0.000024
      91     O        2         3.379693     3.379714    -0.759407    -0.000021
      92     O        2         3.379630     3.379641    -0.759270    -0.000011
      93     O        2         3.379757     3.379760    -0.759517    -0.000002
      94     O        2         3.379916     3.379912    -0.759829     0.000004
      95     O        2         3.381023     3.381122    -0.762145    -0.000099
      96     O        2         3.381027     3.381126    -0.762153    -0.000099
      97     O        2         3.379646     3.379691    -0.759338    -0.000045
      98     O        2         3.379647     3.379692    -0.759338    -0.000045
      99     O        2         3.379633     3.379643    -0.759276    -0.000011
     100     O        2         3.379682     3.379703    -0.759385    -0.000021
     101     O        2         3.379915     3.379911    -0.759826     0.000004
     102     O        2         3.379762     3.379764    -0.759527    -0.000002
     103     O        2         3.379712     3.379717    -0.759429    -0.000006
     104     O        2         3.379703     3.379709    -0.759412    -0.000006
     105     O        2         3.379856     3.379857    -0.759713    -0.000001
     106     O        2         3.380210     3.380202    -0.760412     0.000008
     107     O        2         3.379633     3.379643    -0.759276    -0.000011
[...]
       0.22521509       0.22538129       0.22569486       0.22615109
       0.22711131       0.22740494       0.22766387       0.22793220
       0.22793830       0.22914696       0.23035096       0.23817097
       0.23832425       0.23852903       0.23858391       0.23876809
       0.23878703       0.23905775       0.23907838       0.23920587
       0.23954489       0.23963448       0.23973444       0.23982105
       0.24034068       0.24106673       0.24143385       0.24175621
       0.24198741       0.24224893       0.24245543       0.24266905
       0.24273144       0.24284936       0.24322460       0.24394476
       0.24395175       0.24457909       0.24489942       0.24556151
       0.24570380       0.24579639       0.24580730       0.24599016
       0.24618320       0.24633533       0.24645838       0.24667897
       0.24696957       0.24706162       0.24711433       0.24715107
       0.24930141       0.25197697       0.25202881       0.25217726
       0.25236246       0.25245515       0.25249359       0.25266594
       0.25284376       0.25293112       0.25309451       0.25326116
       0.25328742       0.25345450       0.25361753       0.25371942
       0.25442231       0.25445444       0.25487821       0.25495390
       0.25499245       0.25545629       0.25552970       0.25590763
       0.25606413       0.25652339       0.25686717       0.25730400
       0.25792169       0.25798145       0.25821094       0.25985172
       0.26046509       0.26060082       0.26066371       0.26089725
       0.26100359       0.26140145       0.26145926       0.26156208
       0.26179935       0.26194475       0.26197217       0.26211987
       0.26218229       0.26218260       0.26224166       0.26290225
       0.26291836       0.26330673       0.26349251       0.26359175
       0.26398690       0.26420473       0.26421397       0.26440213
       0.26443979       0.26453399       0.26482905       0.26502598
       0.26509167       0.26558035       0.26573502       0.26602902
       0.26681103       0.26684348       0.26696802       0.26758335
       0.26763087       0.26774909       0.26857080       0.27019051
       0.27377039       0.27378519       0.27411484       0.27423160
       0.27438066       0.27460645       0.27489397       0.27497773
       0.27872155       0.27905133       0.27909304       0.27921216
       0.27955708       0.27965623       0.27972112       0.28058416
       0.28079852       0.28088589       0.28107025       0.28124105
       0.28133466       0.28145606       0.28147978       0.28156298
       0.28169049       0.28200806       0.28209147       0.28232100
       0.28245789       0.28246710       0.28254481       0.28279961
       0.28338734       0.28349678       0.28361717       0.28371783
       0.28383793       0.28388675       0.28403197       0.28425691
       0.28440010       0.28465607       0.28477195       0.28525265
       0.28527819       0.28544748       0.28545675       0.28550347
       0.28551190       0.28574253       0.28600826       0.28615993
       0.28630661       0.28635565       0.28650740       0.28667872
       0.28692377       0.28720086       0.28846697       0.28907010
       0.28944621       0.28982786       0.29136567       0.29167067
       0.29231842       0.29372168       0.29398288       0.29408557
       0.29431345       0.29476581       0.29486061       0.29506122
       0.29530657       0.29533890       0.29574218       0.29614335
       0.29722090       0.29741618       0.30005253       0.30009644
       0.30036689       0.30046938       0.30049913       0.30054088
       0.30063463       0.30084999       0.30091228       0.30116752
       0.30119622       0.30146776       0.30183045       0.30203561
       0.30255477       0.30299537       0.30448438       0.30460496
       0.30497068       0.30513630       0.30531452       0.30538597
       0.30560419       0.30637929       0.30947489       0.30980418
       0.30997752       0.31049715       0.31193383       0.31219661
       0.31222701       0.31233456       0.31274866       0.31331181
       0.31349106       0.31401025       0.31439643       0.31612381
       0.31637875       0.31684361       0.31691800       0.32044520
       0.32054924       0.32055135       0.32077773       0.32079238
       0.32106652       0.32126850       0.32188715       0.32573913
       0.32595516       0.32632316       0.32667566       0.32779032
       0.32779698       0.33151280       0.33213393       0.34086627
 Fermi Energy [eV] :    9.275443
  
  Lowest eigenvalues of the unoccupied subspace spin            1
 ---------------------------------------------

  
  Lowest eigenvalues of the unoccupied subspace spin            2
 ---------------------------------------------


 ENERGY| Total FORCE_EVAL ( QS ) energy (a.u.):            -8111.771900136280237


 -------------------------------------------------------------------------------
 -                                                                             -
 -                                DBCSR STATISTICS                             -
 -                                                                             -
 -------------------------------------------------------------------------------
 COUNTER                                    TOTAL       BLAS       SMM       ACC
 flops     4 x    25 x     4             25920000     100.0%      0.0%      0.0%
 flops    10 x    25 x     4             32400000     100.0%      0.0%      0.0%
 flops     4 x    25 x    10             32400000     100.0%      0.0%      0.0%
 flops    10 x    25 x    10             40500000     100.0%      0.0%      0.0%
 flops     4 x    24 x     4             49766400     100.0%      0.0%      0.0%
 flops    10 x    24 x     4             62208000     100.0%      0.0%      0.0%
 flops     4 x    24 x    10             62208000     100.0%      0.0%      0.0%
 flops    10 x    24 x    10             77760000     100.0%      0.0%      0.0%
 flops     4 x     4 x    56            379491840     100.0%      0.0%      0.0%
 flops     4 x     4 x    57            386268480     100.0%      0.0%      0.0%
 flops    10 x     4 x    56            471744000     100.0%      0.0%      0.0%
 flops     4 x    10 x    56            471744000     100.0%      0.0%      0.0%
 flops    10 x     4 x    57            480168000     100.0%      0.0%      0.0%
 flops     4 x    10 x    57            480168000     100.0%      0.0%      0.0%
 flops    10 x    10 x    56            596232000     100.0%      0.0%      0.0%
 flops    10 x    10 x    57            606879000     100.0%      0.0%      0.0%
 flops     4 x     4 x    32           2602229760     100.0%      0.0%      0.0%
 flops    10 x     4 x    32           3234816000     100.0%      0.0%      0.0%
 flops     4 x    10 x    32           3234816000     100.0%      0.0%      0.0%
 flops     4 x    32 x     4           3284582400     100.0%      0.0%      0.0%
 flops    10 x    10 x    32           4088448000     100.0%      0.0%      0.0%
 flops    10 x    32 x     4           4105728000     100.0%      0.0%      0.0%
 flops     4 x    32 x    10           4105728000     100.0%      0.0%      0.0%
 flops    10 x    32 x    10           5132160000     100.0%      0.0%      0.0%
 flops     4 x     4 x    64          11276328960     100.0%      0.0%      0.0%
 flops    10 x     4 x    64          14017536000     100.0%      0.0%      0.0%
 flops     4 x    10 x    64          14017536000     100.0%      0.0%      0.0%
 flops    10 x    10 x    64          17716608000     100.0%      0.0%      0.0%
 flops inhomo. stacks                           0       0.0%      0.0%      0.0%
 flops total                        91.072375E+09     100.0%      0.0%      0.0%
 flops max/rank                      2.448057E+09     100.0%      0.0%      0.0%
 matmuls inhomo. stacks                         0       0.0%      0.0%      0.0%
 matmuls total                           26460000     100.0%      0.0%      0.0%
 number of processed stacks                 96160     100.0%      0.0%      0.0%
 average stack size                                   275.2       0.0       0.0
 marketing flops                   164.465885E+09
 -------------------------------------------------------------------------------
 # multiplications                             29
 max memory usage/rank             418.320384E+06
 # max total images/rank                        5
 # max 3D layers                                1
 # MPI messages exchanged                   73080
 MPI messages size (bytes):
  total size                         7.498436E+09
  min size                          40.960000E+03
  max size                         280.704000E+03
  average size                     102.605852E+03
 MPI breakdown and total messages size (bytes):
             size <=      128                   0                        0
       128 < size <=     8192                   0                        0
      8192 < size <=    32768                   0                        0
     32768 < size <=   131072               57816               4237064640
    131072 < size <=  4194304               15264               3261371040
   4194304 < size <= 16777216                   0                        0
  16777216 < size                               0                        0
 -------------------------------------------------------------------------------

 *** WARNING in dbcsr/mm/dbcsr_mm.F:268 :: Using a non-square number of ***
 *** MPI ranks might lead to poor performance.                          ***
 *** Used ranks: 40                                                     ***
 *** Suggested: 36 81                                                   ***

 -------------------------------------------------------------------------------

 MEMORY| Estimated peak process memory [MiB]                                 403

 -------------------------------------------------------------------------------
 ----                             MULTIGRID INFO                            ----
 -------------------------------------------------------------------------------
 count for grid        1:         884878          cutoff [a.u.]          325.00
 count for grid        2:         501759          cutoff [a.u.]          108.33
 count for grid        3:         797626          cutoff [a.u.]           36.11
 count for grid        4:        1053934          cutoff [a.u.]           12.04
 count for grid        5:         551048          cutoff [a.u.]            4.01
 count for grid        6:              0          cutoff [a.u.]            1.34
 count for grid        7:              0          cutoff [a.u.]            0.45
 count for grid        8:              0          cutoff [a.u.]            0.15
 count for grid        9:              0          cutoff [a.u.]            0.05
 count for grid       10:              0          cutoff [a.u.]            0.02
 total gridlevel count  :        3789245

 -------------------------------------------------------------------------------
 -                                                                             -
 -                         MESSAGE PASSING PERFORMANCE                         -
 -                                                                             -
 -------------------------------------------------------------------------------

 ROUTINE             CALLS      AVE VOLUME [Bytes]
 MP_Group               39
 MP_Bcast             2309                 167764.
 MP_Allreduce          691                   1377.
 MP_Sync               434
 MP_Alltoall          1509                3038994.
 MP_ISendRecv        15600                  15276.
 MP_Wait             23972
 MP_comm_split          24
 MP_ISend             9522                 129091.
 MP_IRecv             9488                 128738.
 MP_Recv                66                 414720.
 MP_Memory            4498
 -------------------------------------------------------------------------------


 -------------------------------------------------------------------------------
 -                                                                             -
 -                           R E F E R E N C E S                               -
 -                                                                             -
 -------------------------------------------------------------------------------
 
 CP2K version 6.1, the CP2K developers group (2018).
 CP2K is freely available from https://www.cp2k.org/ .

 Schuett, Ole; Messmer, Peter; Hutter, Juerg; VandeVondele, Joost. 
 Electronic Structure Calculations on Graphics Processing Units, John Wiley & Sons, Ltd, 173-190 (2016). 
 GPU-Accelerated Sparse Matrix-Matrix Multiplication for Linear Scaling Density Functional Theory.
 http://dx.doi.org/10.1002/9781118670712.ch8


 Borstnik, U; VandeVondele, J; Weber, V; Hutter, J. 
 PARALLEL COMPUTING, 40 (5-6), 47-58 (2014). 
 Sparse matrix multiplication: The distributed block-compressed sparse
 row library.
 http://dx.doi.org/10.1016/j.parco.2014.03.012


 Hutter, J; Iannuzzi, M; Schiffmann, F; VandeVondele, J. 
 WILEY INTERDISCIPLINARY REVIEWS-COMPUTATIONAL MOLECULAR SCIENCE, 4 (1), 15-25 (2014). 
 CP2K: atomistic simulations of condensed matter systems.
 http://dx.doi.org/10.1002/wcms.1159


 VandeVondele, J; Hutter, J. 
 JOURNAL OF CHEMICAL PHYSICS, 127 (11), 114105 (2007). 
 Gaussian basis sets for accurate calculations on molecular systems in
 gas and condensed phases.
 http://dx.doi.org/10.1063/1.2770708


 Krack, M. 
 THEORETICAL CHEMISTRY ACCOUNTS, 114 (1-3), 145-152 (2005). 
 Pseudopotentials for H to Kr optimized for gradient-corrected
 exchange-correlation functionals.
 http://dx.doi.org/10.1007/s00214-005-0655-y


 VandeVondele, J; Krack, M; Mohamed, F; Parrinello, M; Chassaing, T;
 Hutter, J. COMPUTER PHYSICS COMMUNICATIONS, 167 (2), 103-128 (2005). 
 QUICKSTEP: Fast and accurate density functional calculations using a
 mixed Gaussian and plane waves approach.
 http://dx.doi.org/10.1016/j.cpc.2004.12.014


 Frigo, M; Johnson, SG. 
 PROCEEDINGS OF THE IEEE, 93 (2), 216-231 (2005). 
 The design and implementation of FFTW3.
 http://dx.doi.org/10.1109/JPROC.2004.840301


 Hartwigsen, C; Goedecker, S; Hutter, J. 
 PHYSICAL REVIEW B, 58 (7), 3641-3662 (1998). 
 Relativistic separable dual-space Gaussian pseudopotentials from H to Rn.
 http://dx.doi.org/10.1103/PhysRevB.58.3641


 Dudarev, SL; Botton, GA; Savrasov, SY; Humphreys, CJ; Sutton, AP. 
 PHYSICAL REVIEW B, 57 (3), 1505-1509 (1998). 
 Electron-energy-loss spectra and the structural stability of
 nickel oxide: An LSDA+U study.
 http://dx.doi.org/10.1103/PhysRevB.57.1505


 Lippert, G; Hutter, J; Parrinello, M. 
 MOLECULAR PHYSICS, 92 (3), 477-487 (1997). 
 A hybrid Gaussian and plane wave density functional scheme.
 http://dx.doi.org/10.1080/002689797170220


 Dudarev, SL; Manh, DN; Sutton, AP. 
 PHILOSOPHICAL MAGAZINE B, 75 (5), 613-628 (1997). 
 Effect of Mott-Hubbard correlations on the electronic
 structure and structural stability of uranium dioxide.
 http://dx.doi.org/10.1080/13642819708202343


 Perdew, JP; Burke, K; Ernzerhof, M. 
 PHYSICAL REVIEW LETTERS, 77 (18), 3865-3868 (1996). 
 Generalized gradient approximation made simple.
 http://dx.doi.org/10.1103/PhysRevLett.77.3865


 Goedecker, S; Teter, M; Hutter, J. 
 PHYSICAL REVIEW B, 54 (3), 1703-1710 (1996). 
 Separable dual-space Gaussian pseudopotentials.
 http://dx.doi.org/10.1103/PhysRevB.54.1703


 -------------------------------------------------------------------------------
 -                                                                             -
 -                                T I M I N G                                  -
 -                                                                             -
 -------------------------------------------------------------------------------
 SUBROUTINE                       CALLS  ASD         SELF TIME        TOTAL TIME
                                MAXIMUM       AVERAGE  MAXIMUM  AVERAGE  MAXIMUM
 CP2K                                 1  1.0    0.084    0.087  130.133  130.134
 qs_energies                          1  2.0    0.000    0.000  129.794  129.796
 scf_env_do_scf                       1  3.0    0.000    0.000  116.827  117.068
 scf_env_do_scf_inner_loop           12  4.0    0.001    0.001  116.827  117.068
 qs_ks_update_qs_env                 12  5.0    0.001    0.001   58.873   58.918
 rebuild_ks_matrix                   12  6.0    0.000    0.000   58.866   58.911
 qs_ks_build_kohn_sham_matrix        12  7.0    0.121    0.166   58.866   58.911
 qs_rho_update_rho                   13  5.0    0.000    0.000   49.451   49.452
 calculate_rho_elec                  26  6.0   43.774   44.709   49.451   49.452
 sum_up_and_integrate                12  8.0    0.027    0.029   45.521   45.522
 integrate_v_rspace                  24  9.0   41.150   41.794   45.494   45.496
 pw_transfer                        753  9.5    0.033    0.039   14.950   15.078
 fft_wrap_pw1pw2                    729 10.5    0.005    0.006   14.862   14.987
 fft_wrap_pw1pw2_330                279 11.6    0.762    0.814   14.278   14.407
 fft3d_ps                           729 12.5    6.747    7.468   12.303   12.432
 qs_vxc_create                       12  8.0    0.000    0.000   12.297   12.336
 xc_vxc_pw_create                    12  9.0    0.167    0.191   12.297   12.336
 qs_scf_new_mos                      12  5.0    0.000    0.001    9.865    9.929
 eigensolver                         24  6.0    0.001    0.002    9.227    9.236
 qs_energies_init_hamiltonians        1  3.0    0.000    0.000    8.090    8.090
 build_core_hamiltonian_matrix        1  4.0    0.000    0.000    7.029    7.666
 xc_rho_set_and_dset_create          12 10.0    0.077    0.086    6.812    7.067
 cp_fm_syevd                         24  7.0    0.000    0.000    7.021    7.027
 cp_fm_redistribute_end              24  8.0    2.127    6.964    2.139    6.974
 cp_fm_syevd_base                    24  8.0    4.808    6.884    4.808    6.884
 density_rs2pw                       26  7.0    0.002    0.002    5.199    6.527
 rs_pw_transfer                     504  9.4    0.004    0.005    4.611    6.509
 mp_alltoall_z22v                   729 14.5    4.588    5.317    4.588    5.317
 build_core_ppnl                      1  5.0    4.306    4.686    4.306    4.686
 mp_waitany                        4776 11.3    2.549    4.396    2.549    4.396
 rs_pw_transfer_RS2PW_330            28  8.9    0.404    0.474    2.492    4.375
 init_scf_run                         1  3.0    0.000    0.000    4.335    4.337
 scf_env_initial_rho_setup            1  4.0    0.000    0.000    4.310    4.310
 x_to_yz                            228 13.9    0.631    0.698    3.056    3.390
 potential_pw2rs                     24 10.0    0.004    0.004    3.019    3.023
 yz_to_x                            201 13.1    0.297    0.319    2.456    2.841
 build_core_ppl                       1  5.0    2.545    2.795    2.545    2.795
 xc_functional_eval                  12 11.0    0.000    0.000    2.393    2.656
 pbe_lsd_eval                        12 12.0    2.393    2.656    2.393    2.656
 -------------------------------------------------------------------------------

 The number of warnings for this run is : 1
 
 -------------------------------------------------------------------------------
  **** **** ******  **  PROGRAM ENDED AT                 2019-08-02 13:28:39.702
 ***** ** ***  *** **   PROGRAM RAN ON            cpn-p28-41.cbls.ccr.buffalo.ed
 **    ****   ******    PROGRAM RAN BY                                  pavankum
 ***** **    ** ** **   PROGRAM PROCESS ID                                 30753
  **** **  *******  **  PROGRAM STOPPED IN /projects/academic/mdupuis2/pavan/VAB
                                           _calculation/results_for_paper/7.TiO2
                                           _pbe_plus_U10/point_0.6
