      77
 i =       53, E =     -1335.6172972356
 Fe        18.3399487468       -0.0001719364       -0.0004441546
 Fe        15.2923211450        0.0000336715       -0.0000213546
 Fe        12.2197958965       -0.0002521561        0.0001965616
 Fe         9.1382855372       -0.0001519812        0.0000740723
 Fe         6.1238716374        0.0142818198        0.0000979175
 Fe         3.1094351405        0.0000891760        0.0000339616
 Fe         0.0245402453       -0.0003173927        0.0001300762
  O        18.3145532537        0.0320947784        2.0771880106
  O        18.3145548717       -0.0321141502       -2.0770602512
  O        19.8592992566       -1.2088903390        0.0240108490
  O        19.8591967107        1.2085742573       -0.0238505058
  O        15.2699367182        0.0320986744        2.0793889788
  O        15.2698404178       -0.0321163524       -2.0791476735
  O        16.8144024979       -1.2129576066        0.0253329353
  O        16.8143960080        1.2128961133       -0.0252424280
  O        12.2328812249        0.0291241167        2.0977665666
  O        12.2329364422       -0.0295413229       -2.0975481426
  O        13.7691445630       -1.2087852343        0.0240380652
  O        13.7692701811        1.2084591411       -0.0238341710
  O         9.2301448214       -0.0294925734        2.1168265476
  O         9.2302198049        0.0286576531       -2.1168728803
  O        10.7295679956       -1.2073193430       -0.0010339819
  O        10.7305963719        1.2069232494        0.0013147500
  O         6.1263918904        0.0247590737        2.1711706203
  O         6.1265566128        0.0348590808       -2.1715754042
  O         7.7579548030       -1.2590922264       -0.0244975269
  O         7.7679497938        1.2669552799        0.0251887648
  O         3.0154323450       -0.0302417670        2.1142398647
  O         3.0154736471        0.0291865988       -2.1142564796
  O         4.4895094525       -1.2591528040       -0.0245001175
  O         4.4793687936        1.2669824996        0.0252194938
  O        -0.0237523378        0.0276607286        2.0977583187
  O        -0.0235477455       -0.0281824585       -2.0975987603
  O         1.5149080415       -1.2060519450       -0.0080104727
  O         1.5137248633        1.2056104140        0.0081978923
  H        18.3866227563       -0.8479751708       -2.6357049698
  H        18.3694800114        0.7761095283       -2.6485860704
  H        18.3680468513       -0.7760433255        2.6490132567
  H        18.3879989363        0.8480711744        2.6355504197
  H        19.8701856910       -2.1969540486        0.0273440967
  H        19.8703734086        2.1966003500       -0.0275099002
  H        15.1732980866       -0.8481158889       -2.6338402634
  H        15.1840246492        0.7757561602       -2.6473415542
  H        15.1859255277       -0.7756114355        2.6480415833
  H        15.1723294479        0.8482465553        2.6336790024
  H        16.8132976245       -2.2010081847        0.0290795484
  H        16.8132869527        2.2009274360       -0.0291084504
  H        12.0080120457       -0.8429278716       -2.6189929763
  H        12.0425028397        0.7769748120       -2.6429320539
  H        12.0502204733       -0.7786887155        2.6439104772
  H        12.0009580381        0.8408179925        2.6187767604
  H        13.7565904536       -2.1968357486        0.0282287067
  H        13.7564187256        2.1964977996       -0.0278523850
  H         8.9993673658       -0.7739390596       -2.6521680440
  H         9.0252418095        0.8493027860       -2.6351304094
  H         9.0356934127       -0.8521458313        2.6361209801
  H         8.9887691519        0.7707046236        2.6508852405
  H        10.6956855251       -2.1941017723        0.0014266632
  H        10.6972790309        2.1936750623       -0.0009696247
  H         6.1098525991       -0.7787592801       -2.7375330593
  H         6.1100774280        0.8470637412       -2.7396536684
  H         6.1096088637       -0.7790646732        2.7509426847
  H         6.1096346148        0.8467963313        2.7248875968
  H         7.7302784981       -2.2440468214       -0.0290055194
  H         7.7509324024        2.2522469902        0.0282044104
  H         3.2137833070       -0.7753396320       -2.6589240326
  H         3.1902414342        0.8499007168       -2.6426549474
  H         3.1810525201       -0.8525118665        2.6433046682
  H         3.2224160795        0.7724409493        2.6582264482
  H         4.5170157140       -2.2441121361       -0.0289093544
  H         4.4963997348        2.2523152149        0.0281894261
  H         0.1757964160       -0.8418486498       -2.6287871620
  H         0.1316124929        0.7793671094       -2.6524353582
  H         0.1250561917       -0.7808013136        2.6530083110
  H         0.1810299712        0.8400591745        2.6287925804
  H         1.5478903751       -2.1928993358       -0.0040579384
  H         1.5461429951        2.1924434230        0.0044324388
