 DBCSR| Multiplication driver                                               BLAS
 DBCSR| Multrec recursion limit                                              512
 DBCSR| Multiplication stack size                                           1000
 DBCSR| Maximum elements for images                                    UNLIMITED
 DBCSR| Multiplicative factor virtual images                                   1
 DBCSR| Multiplication size stacks                                             3
 DBCSR| Number of 3D layers                                               SINGLE
 DBCSR| Use MPI memory allocation                                              T
 DBCSR| Use RMA algorithm                                                      F
 DBCSR| Use Communication thread                                               T
 DBCSR| Communication thread load                                             87


  **** **** ******  **  PROGRAM STARTED AT               2019-07-13 09:05:04.105
 ***** ** ***  *** **   PROGRAM STARTED ON        cpn-u27-15.cbls.ccr.buffalo.ed
 **    ****   ******    PROGRAM STARTED BY                              pavankum
 ***** **    ** ** **   PROGRAM PROCESS ID                                445272
  **** **  *******  **  PROGRAM STARTED IN /projects/academic/mdupuis2/pavan/VAB
                                           _calculation/23.Fe_clust_paper/7units
                                           _dzv/GPW/largecell/point_0.9

 CP2K| version string:                                          CP2K version 5.1
 CP2K| source code revision number:                                    svn:18091
 CP2K| cp2kflags: libint fftw3 libxc parallel mpi3 scalapack has_no_shared_glibc
 CP2K|             max_contr=4
 CP2K| is freely available from                            https://www.cp2k.org/
 CP2K| Program compiled at                          Wed Mar 21 12:31:25 EDT 2018
 CP2K| Program compiled on                       srv-k07-14.cbls.ccr.buffalo.edu
 CP2K| Program compiled for                                                local
 CP2K| Data directory path    /projects/academic/mdupuis2/pavan/cp2k/cp2k-5.1/da
 CP2K| Input file name                                                 input.inp

 GLOBAL| Force Environment number                                              1
 GLOBAL| Basis set file name            /projects/academic/mdupuis2/pavan/BASIS_
 GLOBAL| Potential file name            /projects/academic/mdupuis2/pavan/POTENT
 GLOBAL| MM Potential file name                                     MM_POTENTIAL
 GLOBAL| Coordinate file name                                   intermediate.xyz
 GLOBAL| Method name                                                        CP2K
 GLOBAL| Project name                                                      p_fe_
 GLOBAL| Preferred FFT library                                             FFTW3
 GLOBAL| Preferred diagonalization lib.                                       SL
 GLOBAL| Run type                                                         ENERGY
 GLOBAL| All-to-all communication in single precision                          F
 GLOBAL| FFTs using library dependent lengths                                  T
 GLOBAL| Global print level                                               MEDIUM
 GLOBAL| Total number of message passing processes                           144
 GLOBAL| Number of threads for this process                                    1
 GLOBAL| This output is from process                                           0
 GLOBAL| CPU model name :  Intel(R) Xeon(R) Gold 6126 CPU @ 2.60GHz

 MEMORY| system memory details [Kb]
 MEMORY|                        rank 0           min           max       average
 MEMORY| MemTotal            196307064     196307064     196307064     196307064
 MEMORY| MemFree             101014372      60214912     120846652      91144435
 MEMORY| Buffers                423976        417784        497680        453449
 MEMORY| Cached               88436612      68464184     128991908      98203497
 MEMORY| Slab                   997800        969648       1191400       1070714
 MEMORY| SReclaimable           664232        641988        862716        739278
 MEMORY| MemLikelyFree       190539192     190419152     190750420     190540660


 *** Fundamental physical constants (SI units) ***

 *** Literature: B. J. Mohr and B. N. Taylor,
 ***             CODATA recommended values of the fundamental physical
 ***             constants: 2006, Web Version 5.1
 ***             http://physics.nist.gov/constants

 Speed of light in vacuum [m/s]                             2.99792458000000E+08
 Magnetic constant or permeability of vacuum [N/A**2]       1.25663706143592E-06
 Electric constant or permittivity of vacuum [F/m]          8.85418781762039E-12
 Planck constant (h) [J*s]                                  6.62606896000000E-34
 Planck constant (h-bar) [J*s]                              1.05457162825177E-34
 Elementary charge [C]                                      1.60217648700000E-19
 Electron mass [kg]                                         9.10938215000000E-31
 Electron g factor [ ]                                     -2.00231930436220E+00
 Proton mass [kg]                                           1.67262163700000E-27
 Fine-structure constant                                    7.29735253760000E-03
 Rydberg constant [1/m]                                     1.09737315685270E+07
 Avogadro constant [1/mol]                                  6.02214179000000E+23
 Boltzmann constant [J/K]                                   1.38065040000000E-23
 Atomic mass unit [kg]                                      1.66053878200000E-27
 Bohr radius [m]                                            5.29177208590000E-11

 *** Conversion factors ***

 [u] -> [a.u.]                                              1.82288848426455E+03
 [Angstrom] -> [Bohr] = [a.u.]                              1.88972613288564E+00
 [a.u.] = [Bohr] -> [Angstrom]                              5.29177208590000E-01
 [a.u.] -> [s]                                              2.41888432650478E-17
 [a.u.] -> [fs]                                             2.41888432650478E-02
 [a.u.] -> [J]                                              4.35974393937059E-18
 [a.u.] -> [N]                                              8.23872205491840E-08
 [a.u.] -> [K]                                              3.15774647902944E+05
 [a.u.] -> [kJ/mol]                                         2.62549961709828E+03
 [a.u.] -> [kcal/mol]                                       6.27509468713739E+02
 [a.u.] -> [Pa]                                             2.94210107994716E+13
 [a.u.] -> [bar]                                            2.94210107994716E+08
 [a.u.] -> [atm]                                            2.90362800883016E+08
 [a.u.] -> [eV]                                             2.72113838565563E+01
 [a.u.] -> [Hz]                                             6.57968392072181E+15
 [a.u.] -> [1/cm] (wave numbers)                            2.19474631370540E+05
 [a.u./Bohr**2] -> [1/cm]                                   5.14048714338585E+03
 

 CELL_TOP| Volume [angstrom^3]:                                        26196.625
 CELL_TOP| Vector a [angstrom    21.385     0.000     0.000    |a| =      21.385
 CELL_TOP| Vector b [angstrom     0.000    35.000     0.000    |b| =      35.000
 CELL_TOP| Vector c [angstrom     0.000     0.000    35.000    |c| =      35.000
 CELL_TOP| Angle (b,c), alpha [degree]:                                   90.000
 CELL_TOP| Angle (a,c), beta  [degree]:                                   90.000
 CELL_TOP| Angle (a,b), gamma [degree]:                                   90.000
 CELL_TOP| Numerically orthorhombic:                                         YES

 CELL| Volume [angstrom^3]:                                            26196.625
 CELL| Vector a [angstrom]:      21.385     0.000     0.000    |a| =      21.385
 CELL| Vector b [angstrom]:       0.000    35.000     0.000    |b| =      35.000
 CELL| Vector c [angstrom]:       0.000     0.000    35.000    |c| =      35.000
 CELL| Angle (b,c), alpha [degree]:                                       90.000
 CELL| Angle (a,c), beta  [degree]:                                       90.000
 CELL| Angle (a,b), gamma [degree]:                                       90.000
 CELL| Numerically orthorhombic:                                             YES

 CELL_REF| Volume [angstrom^3]:                                        26196.625
 CELL_REF| Vector a [angstrom    21.385     0.000     0.000    |a| =      21.385
 CELL_REF| Vector b [angstrom     0.000    35.000     0.000    |b| =      35.000
 CELL_REF| Vector c [angstrom     0.000     0.000    35.000    |c| =      35.000
 CELL_REF| Angle (b,c), alpha [degree]:                                   90.000
 CELL_REF| Angle (a,c), beta  [degree]:                                   90.000
 CELL_REF| Angle (a,b), gamma [degree]:                                   90.000
 CELL_REF| Numerically orthorhombic:                                         YES

 *******************************************************************************
 *******************************************************************************
 **                                                                           **
 **     #####                         ##              ##                      **
 **    ##   ##            ##          ##              ##                      **
 **   ##     ##                       ##            ######                    **
 **   ##     ##  ##   ##  ##   #####  ##  ##   ####   ##    #####    #####    **
 **   ##     ##  ##   ##  ##  ##      ## ##   ##      ##   ##   ##  ##   ##   **
 **   ##  ## ##  ##   ##  ##  ##      ####     ###    ##   ######   ######    **
 **    ##  ###   ##   ##  ##  ##      ## ##      ##   ##   ##       ##        **
 **     #######   #####   ##   #####  ##  ##  ####    ##    #####   ##        **
 **           ##                                                    ##        **
 **                                                                           **
 **                                                ... make the atoms dance   **
 **                                                                           **
 **            Copyright (C) by CP2K developers group (2000 - 2017)           **
 **                                                                           **
 *******************************************************************************

 DFT| Spin unrestricted (spin-polarized) Kohn-Sham calculation               UKS
 DFT| Multiplicity                                                            35
 DFT| Number of spin states                                                    2
 DFT| Charge                                                                   6
 DFT| Self-interaction correction (SIC)                                       NO
 DFT| Cutoffs: density                                              1.000000E-10
 DFT|          gradient                                             1.000000E-10
 DFT|          tau                                                  1.000000E-10
 DFT|          cutoff_smoothing_range                               0.000000E+00
 DFT| XC density smoothing                                                  NONE
 DFT| XC derivatives                                                          PW
 FUNCTIONAL| NO EXCHANGE-CORRELATION FUNCTIONAL USED.

 QS| Method:                                                                 GPW
 QS| Density plane wave grid type                        NON-SPHERICAL FULLSPACE
 QS| Number of grid levels:                                                    5
 QS| Density cutoff [a.u.]:                                                250.0
 QS| Multi grid cutoff [a.u.]: 1) grid level                               250.0
 QS|                           2) grid level                                83.3
 QS|                           3) grid level                                27.8
 QS|                           4) grid level                                 9.3
 QS|                           5) grid level                                 3.1
 QS| Grid level progression factor:                                          3.0
 QS| Relative density cutoff [a.u.]:                                        30.0
 QS| Consistent realspace mapping and integration 
 QS| Interaction thresholds: eps_pgf_orb:                                1.0E-10
 QS|                         eps_filter_matrix:                          0.0E+00
 QS|                         eps_core_charge:                            1.0E-14
 QS|                         eps_rho_gspace:                             1.0E-12
 QS|                         eps_rho_rspace:                             1.0E-12
 QS|                         eps_gvg_rspace:                             1.0E-06
 QS|                         eps_ppl:                                    1.0E-02
 QS|                         eps_ppnl:                                   1.0E-08


 ATOMIC KIND INFORMATION

  1. Atomic kind: Fe                                    Number of atoms:       7

     Orbital Basis Set                                                   mod-DZV

       Number of orbital shell sets:                                           1
       Number of orbital shells:                                               7
       Number of primitive Cartesian functions:                                6
       Number of Cartesian basis functions:                                   21
       Number of spherical basis functions:                                   19
       Norm type:                                                              2

       Normalised Cartesian orbitals:

                        Set   Shell   Orbital            Exponent    Coefficient

                          1       1    2s                8.424366      -0.545589
                                                         4.825220      -0.832336
                                                         2.198939       0.958990
                                                         0.891661       0.416271
                                                         0.316231       0.012631
                                                         0.103474      -0.013505

                          1       2    3s                8.424366      -0.106056
                                                         4.825220      -0.104587
                                                         2.198939       0.052318
                                                         0.891661      -0.169042
                                                         0.316231       0.061854
                                                         0.103474       0.122891

                          1       3    4s                8.424366      -0.333477
                                                         4.825220      -0.289267
                                                         2.198939      -0.125861
                                                         0.891661      -1.004000
                                                         0.316231       0.780774
                                                         0.103474      -0.187846

                          1       4    3px               8.424366      -1.658234
                                                         4.825220       1.618912
                                                         2.198939       1.969078
                                                         0.891661       0.523780
                                                         0.316231       0.024574
                                                         0.103474      -0.000798
                          1       4    3py               8.424366      -1.658234
                                                         4.825220       1.618912
                                                         2.198939       1.969078
                                                         0.891661       0.523780
                                                         0.316231       0.024574
                                                         0.103474      -0.000798
                          1       4    3pz               8.424366      -1.658234
                                                         4.825220       1.618912
                                                         2.198939       1.969078
                                                         0.891661       0.523780
                                                         0.316231       0.024574
                                                         0.103474      -0.000798

                          1       5    4px               8.424366      -0.105249
                                                         4.825220      -0.126123
                                                         2.198939      -0.349657
                                                         0.891661      -0.133470
                                                         0.316231       0.170554
                                                         0.103474       0.054381
                          1       5    4py               8.424366      -0.105249
                                                         4.825220      -0.126123
                                                         2.198939      -0.349657
                                                         0.891661      -0.133470
                                                         0.316231       0.170554
                                                         0.103474       0.054381
                          1       5    4pz               8.424366      -0.105249
                                                         4.825220      -0.126123
                                                         2.198939      -0.349657
                                                         0.891661      -0.133470
                                                         0.316231       0.170554
                                                         0.103474       0.054381

                          1       6    4dx2              8.424366       7.918298
                                                         4.825220       5.112663
                                                         2.198939       2.118663
                                                         0.891661       0.465004
                                                         0.316231       0.065856
                                                         0.103474       0.002769
                          1       6    4dxy              8.424366      13.714895
                                                         4.825220       8.855393
                                                         2.198939       3.669632
                                                         0.891661       0.805411
                                                         0.316231       0.114066
                                                         0.103474       0.004796
                          1       6    4dxz              8.424366      13.714895
                                                         4.825220       8.855393
                                                         2.198939       3.669632
                                                         0.891661       0.805411
                                                         0.316231       0.114066
                                                         0.103474       0.004796
                          1       6    4dy2              8.424366       7.918298
                                                         4.825220       5.112663
                                                         2.198939       2.118663
                                                         0.891661       0.465004
                                                         0.316231       0.065856
                                                         0.103474       0.002769
                          1       6    4dyz              8.424366      13.714895
                                                         4.825220       8.855393
                                                         2.198939       3.669632
                                                         0.891661       0.805411
                                                         0.316231       0.114066
                                                         0.103474       0.004796
                          1       6    4dz2              8.424366       7.918298
                                                         4.825220       5.112663
                                                         2.198939       2.118663
                                                         0.891661       0.465004
                                                         0.316231       0.065856
                                                         0.103474       0.002769

                          1       7    5dx2              8.424366      -4.223614
                                                         4.825220      -1.970584
                                                         2.198939      -1.543490
                                                         0.891661      -0.041381
                                                         0.316231       0.082821
                                                         0.103474       0.021964
                          1       7    5dxy              8.424366      -7.315513
                                                         4.825220      -3.413151
                                                         2.198939      -2.673404
                                                         0.891661      -0.071673
                                                         0.316231       0.143450
                                                         0.103474       0.038042
                          1       7    5dxz              8.424366      -7.315513
                                                         4.825220      -3.413151
                                                         2.198939      -2.673404
                                                         0.891661      -0.071673
                                                         0.316231       0.143450
                                                         0.103474       0.038042
                          1       7    5dy2              8.424366      -4.223614
                                                         4.825220      -1.970584
                                                         2.198939      -1.543490
                                                         0.891661      -0.041381
                                                         0.316231       0.082821
                                                         0.103474       0.021964
                          1       7    5dyz              8.424366      -7.315513
                                                         4.825220      -3.413151
                                                         2.198939      -2.673404
                                                         0.891661      -0.071673
                                                         0.316231       0.143450
                                                         0.103474       0.038042
                          1       7    5dz2              8.424366      -4.223614
                                                         4.825220      -1.970584
                                                         2.198939      -1.543490
                                                         0.891661      -0.041381
                                                         0.316231       0.082821
                                                         0.103474       0.021964

     GTH Potential information for                                  GTH-BLYP-q16

       Description:                       Goedecker-Teter-Hutter pseudopotential
                                           Goedecker et al., PRB 54, 1703 (1996)
                                          Hartwigsen et al., PRB 58, 3641 (1998)
                                                      Krack, TCA 114, 145 (2005)

       Gaussian exponent of the core charge distribution:               3.858025
       Electronic configuration (s p d ...):                           4   6   6

       Parameters of the local part of the GTH pseudopotential:

                          rloc        C1          C2          C3          C4
                        0.360000    7.011025   -0.222747

       Parameters of the non-local part of the GTH pseudopotential:

                   l      r(l)      h(i,j,l)

                   0    0.276205    0.611496    7.992357
                                    7.992357  -10.318089
                   1    0.247130   -8.710556    8.684169
                                    8.684169  -10.275248
                   2    0.223534  -12.411504

  2. Atomic kind: O                                     Number of atoms:      28

     Orbital Basis Set                                                   mod-DZV

       Number of orbital shell sets:                                           1
       Number of orbital shells:                                               4
       Number of primitive Cartesian functions:                                5
       Number of Cartesian basis functions:                                    8
       Number of spherical basis functions:                                    8
       Norm type:                                                              2

       Normalised Cartesian orbitals:

                        Set   Shell   Orbital            Exponent    Coefficient

                          1       1    2s               10.389228       0.396646
                                                         3.849621       0.208811
                                                         1.388401      -0.301641
                                                         0.496955      -0.274061
                                                         0.162492      -0.033677

                          1       2    3s               10.389228       0.303673
                                                         3.849621       0.240943
                                                         1.388401      -0.313066
                                                         0.496955      -0.043055
                                                         0.162492       0.213991

                          1       3    3px              10.389228      -1.530415
                                                         3.849621      -1.371928
                                                         1.388401      -0.761951
                                                         0.496955      -0.253695
                                                         0.162492      -0.035541
                          1       3    3py              10.389228      -1.530415
                                                         3.849621      -1.371928
                                                         1.388401      -0.761951
                                                         0.496955      -0.253695
                                                         0.162492      -0.035541
                          1       3    3pz              10.389228      -1.530415
                                                         3.849621      -1.371928
                                                         1.388401      -0.761951
                                                         0.496955      -0.253695
                                                         0.162492      -0.035541

                          1       4    4px              10.389228      -0.565392
                                                         3.849621      -0.038231
                                                         1.388401      -0.382373
                                                         0.496955       0.179070
                                                         0.162492       0.122714
                          1       4    4py              10.389228      -0.565392
                                                         3.849621      -0.038231
                                                         1.388401      -0.382373
                                                         0.496955       0.179070
                                                         0.162492       0.122714
                          1       4    4pz              10.389228      -0.565392
                                                         3.849621      -0.038231
                                                         1.388401      -0.382373
                                                         0.496955       0.179070
                                                         0.162492       0.122714

     GTH Potential information for                                   GTH-BLYP-q6

       Description:                       Goedecker-Teter-Hutter pseudopotential
                                           Goedecker et al., PRB 54, 1703 (1996)
                                          Hartwigsen et al., PRB 58, 3641 (1998)
                                                      Krack, TCA 114, 145 (2005)

       Gaussian exponent of the core charge distribution:               8.438331
       Electronic configuration (s p d ...):                               2   4

       Parameters of the local part of the GTH pseudopotential:

                          rloc        C1          C2          C3          C4
                        0.243420  -16.991892    2.566142

       Parameters of the non-local part of the GTH pseudopotential:

                   l      r(l)      h(i,j,l)

                   0    0.220831   18.388851
                   1    0.217201

  3. Atomic kind: H                                     Number of atoms:      42

     Orbital Basis Set                                                   mod-DZV

       Number of orbital shell sets:                                           1
       Number of orbital shells:                                               2
       Number of primitive Cartesian functions:                                5
       Number of Cartesian basis functions:                                    2
       Number of spherical basis functions:                                    2
       Norm type:                                                              2

       Normalised Cartesian orbitals:

                        Set   Shell   Orbital            Exponent    Coefficient

                          1       1    2s               10.068468      -0.133023
                                                         2.680223      -0.177618
                                                         0.791502      -0.258419
                                                         0.239116      -0.107525
                                                         0.082193      -0.014019

                          1       2    3s               10.068468       0.344673
                                                         2.680223       1.819821
                                                         0.791502      -0.999069
                                                         0.239116       0.017430
                                                         0.082193       0.082660

     GTH Potential information for                                   GTH-BLYP-q1

       Description:                       Goedecker-Teter-Hutter pseudopotential
                                           Goedecker et al., PRB 54, 1703 (1996)
                                          Hartwigsen et al., PRB 58, 3641 (1998)
                                                      Krack, TCA 114, 145 (2005)

       Gaussian exponent of the core charge distribution:              12.500000
       Electronic configuration (s p d ...):                                   1

       Parameters of the local part of the GTH pseudopotential:

                          rloc        C1          C2          C3          C4
                        0.200000   -4.195961    0.730498


 MOLECULE KIND INFORMATION


 All atoms are their own molecule, skipping detailed information


 TOTAL NUMBERS AND MAXIMUM NUMBERS

  Total number of            - Atomic kinds:                                   3
                             - Atoms:                                         77
                             - Shell sets:                                    77
                             - Shells:                                       245
                             - Primitive Cartesian functions:                392
                             - Cartesian basis functions:                    455
                             - Spherical basis functions:                    441

  Maximum angular momentum of- Orbital basis functions:                        2
                             - Local part of the GTH pseudopotential:          2
                             - Non-local part of the GTH pseudopotential:      3


 MODULE QUICKSTEP:  ATOMIC COORDINATES IN angstrom

  Atom  Kind  Element       X           Y           Z          Z(eff)       Mass

       1     1 Fe  26   18.331301    0.000007    0.000019     16.00      55.8450
       2     1 Fe  26   15.271220   -0.000005    0.000173     16.00      55.8450
       3     1 Fe  26   12.196602   -0.000026   -0.000313     16.00      55.8450
       4     1 Fe  26    9.165273    0.000004   -0.000004     16.00      55.8450
       5     1 Fe  26    6.138853    0.000031    0.000334     16.00      55.8450
       6     1 Fe  26    3.067495    0.000005   -0.000106     16.00      55.8450
       7     1 Fe  26    0.005605   -0.000009    0.000036     16.00      55.8450
       8     2 O    8   18.332096   -0.000005    2.143021      6.00      15.9994
       9     2 O    8   18.331976    0.000013   -2.142989      6.00      15.9994
      10     2 O    8   19.859362   -1.261012   -0.000023      6.00      15.9994
      11     2 O    8   19.859372    1.261008   -0.000023      6.00      15.9994
      12     2 O    8   15.288353   -0.000267    2.150348      6.00      15.9994
      13     2 O    8   15.288290    0.000290   -2.150015      6.00      15.9994
      14     2 O    8   16.815148   -1.261151   -0.000016      6.00      15.9994
      15     2 O    8   16.815142    1.261166    0.000228      6.00      15.9994
      16     2 O    8   12.261144    0.001123    2.169746      6.00      15.9994
      17     2 O    8   12.261606   -0.001192   -2.170437      6.00      15.9994
      18     2 O    8   13.780229   -1.258384   -0.000246      6.00      15.9994
      19     2 O    8   13.780234    1.258331    0.000308      6.00      15.9994
      20     2 O    8    9.172656   -0.002608    2.281336      6.00      15.9994
      21     2 O    8    9.172119    0.002618   -2.281346      6.00      15.9994
      22     2 O    8   10.810050   -1.318400    0.004061      6.00      15.9994
      23     2 O    8   10.810067    1.318328   -0.005063      6.00      15.9994
      24     2 O    8    6.075244    0.001181    2.184697      6.00      15.9994
      25     2 O    8    6.075687   -0.001108   -2.183981      6.00      15.9994
      26     2 O    8    7.541721   -1.324995    0.004932      6.00      15.9994
      27     2 O    8    7.541733    1.325072   -0.003999      6.00      15.9994
      28     2 O    8    3.042339   -0.000343    2.152978      6.00      15.9994
      29     2 O    8    3.042300    0.000322   -2.153219      6.00      15.9994
      30     2 O    8    4.544568   -1.264678   -0.000416      6.00      15.9994
      31     2 O    8    4.544567    1.264736    0.000340      6.00      15.9994
      32     2 O    8    0.001286   -0.000022    2.143792      6.00      15.9994
      33     2 O    8    0.001169    0.000007   -2.143764      6.00      15.9994
      34     2 O    8    1.517623   -1.260848   -0.000285      6.00      15.9994
      35     2 O    8    1.517615    1.260830   -0.000001      6.00      15.9994
      36     3 H    1   18.292594   -0.794348   -2.688904      1.00       1.0079
      37     3 H    1   18.292333    0.794384   -2.688868      1.00       1.0079
      38     3 H    1   18.292588   -0.794392    2.688886      1.00       1.0079
      39     3 H    1   18.292786    0.794364    2.688928      1.00       1.0079
      40     3 H    1   19.860877   -2.221207    0.000012      1.00       1.0079
      41     3 H    1   19.860899    2.221203   -0.000011      1.00       1.0079
      42     3 H    1   15.162122   -0.793557   -2.683185      1.00       1.0079
      43     3 H    1   15.160753    0.793936   -2.683164      1.00       1.0079
      44     3 H    1   15.161033   -0.793908    2.683566      1.00       1.0079
      45     3 H    1   15.162339    0.793570    2.683581      1.00       1.0079
      46     3 H    1   16.801546   -2.221130   -0.000006      1.00       1.0079
      47     3 H    1   16.801548    2.221147    0.000089      1.00       1.0079
      48     3 H    1   12.097447   -0.796343   -2.690226      1.00       1.0079
      49     3 H    1   12.089263    0.793967   -2.687497      1.00       1.0079
      50     3 H    1   12.088628   -0.793982    2.686803      1.00       1.0079
      51     3 H    1   12.096728    0.796318    2.689367      1.00       1.0079
      52     3 H    1   13.740250   -2.216776    0.001292      1.00       1.0079
      53     3 H    1   13.740141    2.216715   -0.000708      1.00       1.0079
      54     3 H    1    9.154075   -0.794066   -2.819856      1.00       1.0079
      55     3 H    1    9.154158    0.797443   -2.822608      1.00       1.0079
      56     3 H    1    9.154030   -0.797447    2.822573      1.00       1.0079
      57     3 H    1    9.153796    0.794076    2.819842      1.00       1.0079
      58     3 H    1   10.772785   -2.274206   -0.003090      1.00       1.0079
      59     3 H    1   10.772908    2.274133    0.001381      1.00       1.0079
      60     3 H    1    6.224379   -0.796526   -2.705217      1.00       1.0079
      61     3 H    1    6.232547    0.794261   -2.702613      1.00       1.0079
      62     3 H    1    6.231877   -0.794274    2.703287      1.00       1.0079
      63     3 H    1    6.223676    0.796559    2.706091      1.00       1.0079
      64     3 H    1    7.571011   -2.280536   -0.001377      1.00       1.0079
      65     3 H    1    7.571109    2.280614    0.003034      1.00       1.0079
      66     3 H    1    3.178595   -0.793599   -2.684075      1.00       1.0079
      67     3 H    1    3.179631    0.794088   -2.684085      1.00       1.0079
      68     3 H    1    3.179836   -0.794175    2.683695      1.00       1.0079
      69     3 H    1    3.178822    0.793641    2.683684      1.00       1.0079
      70     3 H    1    4.586866   -2.222620    0.000728      1.00       1.0079
      71     3 H    1    4.586747    2.222685   -0.001237      1.00       1.0079
      72     3 H    1    0.056674   -0.794266   -2.688492      1.00       1.0079
      73     3 H    1    0.056562    0.794317   -2.688451      1.00       1.0079
      74     3 H    1    0.056793   -0.794380    2.688398      1.00       1.0079
      75     3 H    1    0.056893    0.794310    2.688425      1.00       1.0079
      76     3 H    1    1.535532   -2.220626   -0.000140      1.00       1.0079
      77     3 H    1    1.535530    2.220605    0.000038      1.00       1.0079




 SCF PARAMETERS         Density guess:                                   RESTART
                        --------------------------------------------------------
                        max_scf:                                            1000
                        max_scf_history:                                       0
                        max_diis:                                              4
                        --------------------------------------------------------
                        eps_scf:                                        1.00E-06
                        eps_scf_history:                                0.00E+00
                        eps_diis:                                       1.00E-01
                        eps_eigval:                                     1.00E-05
                        --------------------------------------------------------
                        level_shift [a.u.]:                                 0.00
                        --------------------------------------------------------
                        Outer loop SCF in use 
                        No variables optimised in outer loop
                        eps_scf                                         1.00E-06
                        max_scf                                              500
                        No outer loop optimization
                        step_size                                       5.00E-01

 PW_GRID| Information for grid number                                          1
 PW_GRID| Grid distributed over                                   144 processors
 PW_GRID| Real space group dimensions                                   144    1
 PW_GRID| the grid is blocked:                                                NO
 PW_GRID| Cutoff [a.u.]                                                    250.0
 PW_GRID| spherical cutoff:                                                   NO
 PW_GRID|   Bounds   1           -144     143                Points:         288
 PW_GRID|   Bounds   2           -240     239                Points:         480
 PW_GRID|   Bounds   3           -240     239                Points:         480
 PW_GRID| Volume element (a.u.^3)  0.2664E-02     Volume (a.u.^3)    176783.5904
 PW_GRID| Grid span                                                    FULLSPACE
 PW_GRID|   Distribution                         Average         Max         Min
 PW_GRID|   G-Vectors                           460800.0      460800      460800
 PW_GRID|   G-Rays                                1600.0        1600        1600
 PW_GRID|   Real Space Points                   460800.0      460800      460800

 PW_GRID| Information for grid number                                          2
 PW_GRID| Grid distributed over                                   144 processors
 PW_GRID| Real space group dimensions                                   144    1
 PW_GRID| the grid is blocked:                                                NO
 PW_GRID| Cutoff [a.u.]                                                     83.3
 PW_GRID| spherical cutoff:                                                   NO
 PW_GRID|   Bounds   1            -84      83                Points:         168
 PW_GRID|   Bounds   2           -137     137                Points:         275
 PW_GRID|   Bounds   3           -137     137                Points:         275
 PW_GRID| Volume element (a.u.^3)  0.1391E-01     Volume (a.u.^3)    176783.5904
 PW_GRID| Grid span                                                    FULLSPACE
 PW_GRID|   Distribution                         Average         Max         Min
 PW_GRID|   G-Vectors                            88229.2       88368       88032
 PW_GRID|   G-Rays                                 525.2         526         524
 PW_GRID|   Real Space Points                    88229.2      151250       75625

 PW_GRID| Information for grid number                                          3
 PW_GRID| Grid distributed over                                   144 processors
 PW_GRID| Real space group dimensions                                    12   12
 PW_GRID| the grid is blocked:                                                NO
 PW_GRID| Cutoff [a.u.]                                                     27.8
 PW_GRID| spherical cutoff:                                                   NO
 PW_GRID|   Bounds   1            -48      47                Points:          96
 PW_GRID|   Bounds   2            -80      79                Points:         160
 PW_GRID|   Bounds   3            -80      79                Points:         160
 PW_GRID| Volume element (a.u.^3)  0.7193E-01     Volume (a.u.^3)    176783.5904
 PW_GRID| Grid span                                                    FULLSPACE
 PW_GRID|   Distribution                         Average         Max         Min
 PW_GRID|   G-Vectors                            17066.7       17280       16896
 PW_GRID|   G-Rays                                 177.8         180         176
 PW_GRID|   Real Space Points                    17066.7       17920       16640

 PW_GRID| Information for grid number                                          4
 PW_GRID| Grid distributed over                                   144 processors
 PW_GRID| Real space group dimensions                                    12   12
 PW_GRID| the grid is blocked:                                                NO
 PW_GRID| Cutoff [a.u.]                                                      9.3
 PW_GRID| spherical cutoff:                                                   NO
 PW_GRID|   Bounds   1            -27      27                Points:          55
 PW_GRID|   Bounds   2            -48      47                Points:          96
 PW_GRID|   Bounds   3            -48      47                Points:          96
 PW_GRID| Volume element (a.u.^3)  0.3488         Volume (a.u.^3)    176783.5904
 PW_GRID| Grid span                                                    FULLSPACE
 PW_GRID|   Distribution                         Average         Max         Min
 PW_GRID|   G-Vectors                             3520.0        3575        3465
 PW_GRID|   G-Rays                                  64.0          65          63
 PW_GRID|   Real Space Points                     3520.0        3840        3072

 PW_GRID| Information for grid number                                          5
 PW_GRID| Grid distributed over                                   144 processors
 PW_GRID| Real space group dimensions                                    12   12
 PW_GRID| the grid is blocked:                                                NO
 PW_GRID| Cutoff [a.u.]                                                      3.1
 PW_GRID| spherical cutoff:                                                   NO
 PW_GRID|   Bounds   1            -16      15                Points:          32
 PW_GRID|   Bounds   2            -27      26                Points:          54
 PW_GRID|   Bounds   3            -27      26                Points:          54
 PW_GRID| Volume element (a.u.^3)   1.895         Volume (a.u.^3)    176783.5904
 PW_GRID| Grid span                                                    FULLSPACE
 PW_GRID|   Distribution                         Average         Max         Min
 PW_GRID|   G-Vectors                              648.0         704         608
 PW_GRID|   G-Rays                                  20.2          22          19
 PW_GRID|   Real Space Points                      648.0         810         432

 POISSON| Solver                                                        PERIODIC
 POISSON| Periodicity                                                        XYZ

 RS_GRID| Information for grid number                                          1
 RS_GRID|   Bounds   1           -144     143                Points:         288
 RS_GRID|   Bounds   2           -240     239                Points:         480
 RS_GRID|   Bounds   3           -240     239                Points:         480
 RS_GRID| Real space distribution over                                  4 groups
 RS_GRID| Real space distribution along direction                              1
 RS_GRID| Border size                                                         26
 RS_GRID| Real space distribution over                                  6 groups
 RS_GRID| Real space distribution along direction                              2
 RS_GRID| Border size                                                         26
 RS_GRID| Real space distribution over                                  6 groups
 RS_GRID| Real space distribution along direction                              3
 RS_GRID| Border size                                                         26
 RS_GRID|   Distribution                         Average         Max         Min
 RS_GRID|   Planes                                 124.0         124         124
 RS_GRID|   Distribution                         Average         Max         Min
 RS_GRID|   Planes                                 132.0         132         132
 RS_GRID|   Distribution                         Average         Max         Min
 RS_GRID|   Planes                                 132.0         132         132

 RS_GRID| Information for grid number                                          2
 RS_GRID|   Bounds   1            -84      83                Points:         168
 RS_GRID|   Bounds   2           -137     137                Points:         275
 RS_GRID|   Bounds   3           -137     137                Points:         275
 RS_GRID| Real space distribution over                                  4 groups
 RS_GRID| Real space distribution along direction                              1
 RS_GRID| Border size                                                         27
 RS_GRID| Real space distribution over                                  6 groups
 RS_GRID| Real space distribution along direction                              2
 RS_GRID| Border size                                                         27
 RS_GRID| Real space distribution over                                  6 groups
 RS_GRID| Real space distribution along direction                              3
 RS_GRID| Border size                                                         27
 RS_GRID|   Distribution                         Average         Max         Min
 RS_GRID|   Planes                                  96.0          96          96
 RS_GRID|   Distribution                         Average         Max         Min
 RS_GRID|   Planes                                  99.8         100          99
 RS_GRID|   Distribution                         Average         Max         Min
 RS_GRID|   Planes                                  99.8         100          99

 RS_GRID| Information for grid number                                          3
 RS_GRID|   Bounds   1            -48      47                Points:          96
 RS_GRID|   Bounds   2            -80      79                Points:         160
 RS_GRID|   Bounds   3            -80      79                Points:         160
 RS_GRID| Real space fully replicated
 RS_GRID| Group size                                                           1

 RS_GRID| Information for grid number                                          4
 RS_GRID|   Bounds   1            -27      27                Points:          55
 RS_GRID|   Bounds   2            -48      47                Points:          96
 RS_GRID|   Bounds   3            -48      47                Points:          96
 RS_GRID| Real space fully replicated
 RS_GRID| Group size                                                           1

 RS_GRID| Information for grid number                                          5
 RS_GRID|   Bounds   1            -16      15                Points:          32
 RS_GRID|   Bounds   2            -27      26                Points:          54
 RS_GRID|   Bounds   3            -27      26                Points:          54
 RS_GRID| Real space fully replicated
 RS_GRID| Group size                                                           1

 DISTRIBUTION OF THE PARTICLES (ROWS)
              Process row      Number of particles         Number of matrix rows
                        0                        7                            -1
                        1                        7                            -1
                        2                        6                            -1
                        3                        7                            -1
                        4                        7                            -1
                        5                        6                            -1
                        6                        7                            -1
                        7                        7                            -1
                        8                        4                            -1
                        9                        7                            -1
                       10                        6                            -1
                       11                        6                            -1
                      Sum                       77                            -1

 DISTRIBUTION OF THE PARTICLES (COLUMNS)
              Process col      Number of particles      Number of matrix columns
                        0                        7                            -1
                        1                        7                            -1
                        2                        6                            -1
                        3                        7                            -1
                        4                        7                            -1
                        5                        6                            -1
                        6                        7                            -1
                        7                        7                            -1
                        8                        4                            -1
                        9                        7                            -1
                       10                        6                            -1
                       11                        6                            -1
                      Sum                       77                            -1

  HFX_INFO| Replica ID:                                                        1
  HFX_INFO| EPS_SCHWARZ:                                                 1.0E-10
  HFX_INFO| EPS_SCHWARZ_FORCES                                           1.0E-06
  HFX_INFO| EPS_STORAGE_SCALING:                                         1.0E+00
  HFX_INFO| NBINS:                                                            64
  HFX_INFO| BLOCK_SIZE:                                                        1
  HFX_INFO| FRACTION:                                               1.0000000000
  HFX_INFO| Interaction Potential:                                     TRUNCATED
  HFX_INFO| Cutoff Radius [angstrom]:                              10.6711000000
  HFX_INFO| NUMBER_OF_SHELLS:                                               AUTO
  HFX_INFO| Number of periodic shells considered:                             -1
  HFX_INFO| Number of periodic cells considered:                              27


 DISTRIBUTION OF THE NEIGHBOR LISTS
              Total number of particle pairs:                               4179
              Total number of matrix elements:                            134022
              Average number of particle pairs:                               30
              Maximum number of particle pairs:                               47
              Average number of matrix element:                              931
              Maximum number of matrix elements:                            1834


 DISTRIBUTION OF THE OVERLAP MATRIX
              Number  of non-zero blocks:                                   3003
              Percentage non-zero blocks:                                 100.00
              Average number of blocks per CPU:                               21
              Maximum number of blocks per CPU:                               32
              Average number of matrix elements per CPU:                     701
              Maximum number of matrix elements per CPU:                    1063

 Spin 1

 Number of electrons:                                                        175
 Number of occupied orbitals:                                                175
 Number of molecular orbitals:                                               175

 Spin 2

 Number of electrons:                                                        141
 Number of occupied orbitals:                                                141
 Number of molecular orbitals:                                               141

 Number of orbital functions:                                                441
 Number of independent orbital functions:                                    441

 Extrapolation method: initial_guess


 SCF WAVEFUNCTION OPTIMIZATION

  ----------------------------------- OT ---------------------------------------
  Minimizer      : CG                  : conjugate gradient
  Preconditioner : FULL_KINETIC        : inversion of T + eS
  Precond_solver : DEFAULT
  Line search    : 2PNT                : 2 energies, one gradient
  stepsize       :    0.15000000                  energy_gap     :    0.20000000
  eps_taylor     :   0.10000E-15                  max_taylor     :             4
  ----------------------------------- OT ---------------------------------------

  Step     Update method      Time    Convergence         Total energy    Change
  ------------------------------------------------------------------------------

  HFX_MEM_INFO| Est. max. program size before HFX [MiB]:                     290
  HFX_MEM_INFO| Number of cart. primitive ERI's calculated:          75152323790
  HFX_MEM_INFO| Number of sph. ERI's calculated:                      4839130234
  HFX_MEM_INFO| Number of sph. ERI's stored in-core:                  4839130234
  HFX_MEM_INFO| Number of sph. ERI's stored on disk:                           0
  HFX_MEM_INFO| Number of sph. ERI's calculated on the fly:                    0
  HFX_MEM_INFO| Total memory consumption ERI's RAM [MiB]:                  12391
  HFX_MEM_INFO| Whereof max-vals [MiB]:                                        4
  HFX_MEM_INFO| Total compression factor ERI's RAM:                         2.98
  HFX_MEM_INFO| Total memory consumption ERI's disk [MiB]:                     0
  HFX_MEM_INFO| Total compression factor ERI's disk:                        0.00
  HFX_MEM_INFO| Size of density/Fock matrix [MiB]:                             0
  HFX_MEM_INFO| Size of buffers [MiB]:                                         1
  HFX_MEM_INFO| Number of periodic image cells considered:                    27
  HFX_MEM_INFO| Est. max. program size after HFX  [MiB]:                     378

     1 OT CG       0.15E+00   49.1     0.00008563     -1322.6551869159 -1.32E+03
     2 OT LS       0.60E+00    1.0                    -1322.6553270309
     3 OT CG       0.60E+00    1.4     0.00004345     -1322.6555893163 -4.02E-04
     4 OT LS       0.61E+00    0.9                    -1322.6556694796
     5 OT CG       0.61E+00    1.5     0.00004791     -1322.6556694997 -8.02E-05
     6 OT LS       0.36E+00    0.9                    -1322.6557014585
     7 OT CG       0.36E+00    1.4     0.00003217     -1322.6557278114 -5.83E-05
     8 OT LS       0.25E+00    0.9                    -1322.6557422712
     9 OT CG       0.25E+00    1.5     0.00002109     -1322.6557459388 -1.81E-05
    10 OT LS       0.28E+00    0.9                    -1322.6557546230
    11 OT CG       0.28E+00    1.5     0.00001573     -1322.6557547383 -8.80E-06
    12 OT LS       0.42E+00    0.9                    -1322.6557611888
    13 OT CG       0.42E+00    1.5     0.00001572     -1322.6557619135 -7.18E-06
    14 OT LS       0.31E+00    0.8                    -1322.6557667071
    15 OT CG       0.31E+00    1.4     0.00001131     -1322.6557672969 -5.38E-06
    16 OT LS       0.30E+00    0.9                    -1322.6557699186
    17 OT CG       0.30E+00    1.6     0.00000830     -1322.6557699280 -2.63E-06
    18 OT LS       0.41E+00    1.0                    -1322.6557717419
    19 OT CG       0.41E+00    1.5     0.00000863     -1322.6557718958 -1.97E-06
    20 OT LS       0.43E+00    0.9                    -1322.6557741233
    21 OT CG       0.43E+00    1.5     0.00000806     -1322.6557741284 -2.23E-06
    22 OT LS       0.37E+00    0.9                    -1322.6557757491
    23 OT CG       0.37E+00    1.4     0.00000603     -1322.6557757957 -1.67E-06
    24 OT LS       0.33E+00    0.9                    -1322.6557766287
    25 OT CG       0.33E+00    1.4     0.00000484     -1322.6557766384 -8.43E-07
    26 OT LS       0.37E+00    0.8                    -1322.6557772377
    27 OT CG       0.37E+00    1.5     0.00000443     -1322.6557772439 -6.06E-07
    28 OT LS       0.38E+00    0.8                    -1322.6557777595
    29 OT CG       0.38E+00    1.5     0.00000356     -1322.6557777596 -5.16E-07
    30 OT LS       0.32E+00    1.0                    -1322.6557780277
    31 OT CG       0.32E+00    1.4     0.00000244     -1322.6557780382 -2.79E-07
    32 OT LS       0.31E+00    0.9                    -1322.6557781660
    33 OT CG       0.31E+00    1.4     0.00000196     -1322.6557781661 -1.28E-07
    34 OT LS       0.32E+00    0.8                    -1322.6557782524
    35 OT CG       0.32E+00    1.5     0.00000161     -1322.6557782526 -8.65E-08
    36 OT LS       0.38E+00    0.9                    -1322.6557783198
    37 OT CG       0.38E+00    1.5     0.00000142     -1322.6557783212 -6.85E-08
    38 OT LS       0.36E+00    1.0                    -1322.6557783715
    39 OT CG       0.36E+00    1.7     0.00000129     -1322.6557783717 -5.05E-08
    40 OT LS       0.39E+00    0.9                    -1322.6557784161
    41 OT CG       0.39E+00    1.4     0.00000129     -1322.6557784163 -4.47E-08
    42 OT LS       0.48E+00    1.0                    -1322.6557784695
    43 OT CG       0.48E+00    1.6     0.00000144     -1322.6557784717 -5.54E-08
    44 OT LS       0.45E+00    1.0                    -1322.6557785357
    45 OT CG       0.45E+00    1.4     0.00000145     -1322.6557785361 -6.44E-08
    46 OT LS       0.39E+00    0.9                    -1322.6557785921
    47 OT CG       0.39E+00    1.5     0.00000134     -1322.6557785933 -5.72E-08
    48 OT LS       0.40E+00    0.8                    -1322.6557786429
    49 OT CG       0.40E+00    1.4     0.00000126     -1322.6557786429 -4.96E-08
    50 OT LS       0.46E+00    0.9                    -1322.6557786935
    51 OT CG       0.46E+00    1.4     0.00000138     -1322.6557786946 -5.17E-08
    52 OT LS       0.38E+00    0.9                    -1322.6557787420
    53 OT CG       0.38E+00    1.4     0.00000140     -1322.6557787446 -5.00E-08
    54 OT LS       0.41E+00    0.8                    -1322.6557787996
    55 OT CG       0.41E+00    1.5     0.00000150     -1322.6557787999 -5.53E-08
    56 OT LS       0.55E+00    0.9                    -1322.6557788806
    57 OT CG       0.55E+00    1.4     0.00000188     -1322.6557788864 -8.65E-08
    58 OT LS       0.58E+00    0.8                    -1322.6557790300
    59 OT CG       0.58E+00    1.4     0.00000232     -1322.6557790304 -1.44E-07
    60 OT LS       0.46E+00    0.9                    -1322.6557791924
    61 OT CG       0.46E+00    1.4     0.00000242     -1322.6557792038 -1.73E-07
    62 OT LS       0.38E+00    0.9                    -1322.6557793487
    63 OT CG       0.38E+00    1.6     0.00000225     -1322.6557793572 -1.53E-07
    64 OT LS       0.42E+00    0.8                    -1322.6557795038
    65 OT CG       0.42E+00    1.4     0.00000212     -1322.6557795054 -1.48E-07
    66 OT LS       0.39E+00    0.8                    -1322.6557796273
    67 OT CG       0.39E+00    1.5     0.00000188     -1322.6557796280 -1.23E-07
    68 OT LS       0.35E+00    1.0                    -1322.6557797120
    69 OT CG       0.35E+00    1.7     0.00000153     -1322.6557797134 -8.54E-08
    70 OT LS       0.34E+00    0.8                    -1322.6557797696
    71 OT CG       0.34E+00    1.4     0.00000140     -1322.6557797696 -5.62E-08
    72 OT LS       0.34E+00    1.0                    -1322.6557798162
    73 OT CG       0.34E+00    1.4     0.00000124     -1322.6557798162 -4.66E-08
    74 OT LS       0.40E+00    0.8                    -1322.6557798577
    75 OT CG       0.40E+00    1.4     0.00000110     -1322.6557798584 -4.22E-08
    76 OT LS       0.33E+00    0.8                    -1322.6557798845
    77 OT CG       0.33E+00    1.4     0.00000085     -1322.6557798858 -2.74E-08

  *** SCF run converged in    77 steps ***


  Electronic density on regular grids:       -315.9999999998        0.0000000002
  Core density on regular grids:              321.9999999999       -0.0000000001
  Total charge density on r-space grids:        6.0000000001
  Total charge density g-space grids:           6.0000000001

  Overlap energy of the core charge distribution:               0.00000109681479
  Self energy of the core charge distribution:              -2631.59580429473499
  Core Hamiltonian energy:                                    746.78656097044086
  Hartree energy:                                             754.58611429879761
  Exchange-correlation energy:                                  0.00000000000000
  Hartree-Fock Exchange energy:                              -192.43265195714918

  Total energy:                                             -1322.65577988583118

  outer SCF iter =    1 RMS gradient =   0.85E-06 energy =      -1322.6557798858
  outer SCF loop converged in   1 iterations or   77 steps


  Integrated absolute spin density  :                              34.3027237481
  Ideal and single determinant S**2 :                  306.000000     306.047591

 !-----------------------------------------------------------------------------!
                     Mulliken Population Analysis

 #  Atom  Element  Kind  Atomic population (alpha,beta) Net charge  Spin moment
       1     Fe       1         9.416311     4.676797     1.906893     4.739514
       2     Fe       1         9.418667     4.682547     1.898786     4.736120
       3     Fe       1         9.426873     4.704923     1.868204     4.721949
       4     Fe       1         9.162297     5.227630     1.610074     3.934667
       5     Fe       1         9.428105     4.699320     1.872574     4.728785
       6     Fe       1         9.419490     4.684393     1.896117     4.735097
       7     Fe       1         9.416383     4.677064     1.906552     4.739319
       8     O        2         3.310504     3.288374    -0.598878     0.022130
       9     O        2         3.310503     3.288373    -0.598877     0.022130
      10     O        2         3.509067     3.407810    -0.916877     0.101256
      11     O        2         3.509067     3.407810    -0.916876     0.101257
      12     O        2         3.310326     3.288505    -0.598831     0.021821
      13     O        2         3.310315     3.288492    -0.598807     0.021823
      14     O        2         3.509090     3.408388    -0.917478     0.100702
      15     O        2         3.509091     3.408389    -0.917480     0.100702
      16     O        2         3.310519     3.290812    -0.601331     0.019708
      17     O        2         3.310542     3.290845    -0.601387     0.019697
      18     O        2         3.508957     3.409200    -0.918157     0.099758
      19     O        2         3.508958     3.409200    -0.918157     0.099758
      20     O        2         3.314191     3.311550    -0.625742     0.002641
      21     O        2         3.314186     3.311545    -0.625731     0.002641
      22     O        2         3.516976     3.427210    -0.944186     0.089766
      23     O        2         3.516973     3.427208    -0.944181     0.089765
      24     O        2         3.310609     3.291584    -0.602193     0.019025
      25     O        2         3.310579     3.291544    -0.602124     0.019035
      26     O        2         3.516588     3.427837    -0.944425     0.088751
      27     O        2         3.516590     3.427836    -0.944426     0.088754
      28     O        2         3.310574     3.288765    -0.599339     0.021809
      29     O        2         3.310567     3.288763    -0.599330     0.021804
      30     O        2         3.508917     3.409397    -0.918314     0.099521
      31     O        2         3.508917     3.409397    -0.918314     0.099520
      32     O        2         3.310545     3.288409    -0.598954     0.022136
      33     O        2         3.310528     3.288395    -0.598922     0.022133
      34     O        2         3.509008     3.408173    -0.917181     0.100834
      35     O        2         3.509006     3.408171    -0.917178     0.100835
      36     H        3         0.323356     0.322794     0.353850     0.000562
      37     H        3         0.323351     0.322789     0.353861     0.000562
      38     H        3         0.323350     0.322788     0.353862     0.000562
      39     H        3         0.323355     0.322793     0.353852     0.000562
      40     H        3         0.329185     0.326601     0.344213     0.002584
      41     H        3         0.329185     0.326601     0.344213     0.002584
      42     H        3         0.324183     0.323768     0.352049     0.000415
      43     H        3         0.324142     0.323726     0.352132     0.000416
      44     H        3         0.324138     0.323721     0.352141     0.000417
      45     H        3         0.324178     0.323763     0.352059     0.000416
      46     H        3         0.329542     0.326933     0.343525     0.002609
      47     H        3         0.329541     0.326933     0.343526     0.002609
      48     H        3         0.326863     0.326615     0.346522     0.000248
      49     H        3         0.326763     0.326535     0.346702     0.000229
      50     H        3         0.326767     0.326538     0.346696     0.000229
      51     H        3         0.326868     0.326622     0.346510     0.000247
      52     H        3         0.331569     0.328929     0.339502     0.002639
      53     H        3         0.331570     0.328930     0.339500     0.002640
      54     H        3         0.335315     0.334739     0.329946     0.000576
      55     H        3         0.335392     0.334815     0.329793     0.000577
      56     H        3         0.335389     0.334813     0.329798     0.000577
      57     H        3         0.335311     0.334735     0.329954     0.000576
      58     H        3         0.340909     0.339049     0.320042     0.001861
      59     H        3         0.340911     0.339051     0.320038     0.001860
      60     H        3         0.326926     0.326688     0.346386     0.000239
      61     H        3         0.326874     0.326652     0.346474     0.000221
      62     H        3         0.326867     0.326646     0.346486     0.000221
      63     H        3         0.326915     0.326676     0.346409     0.000240
      64     H        3         0.340464     0.338937     0.320599     0.001526
      65     H        3         0.340463     0.338936     0.320601     0.001527
      66     H        3         0.324104     0.323727     0.352169     0.000376
      67     H        3         0.324056     0.323679     0.352265     0.000377
      68     H        3         0.324051     0.323674     0.352275     0.000377
      69     H        3         0.324098     0.323723     0.352179     0.000375
      70     H        3         0.330847     0.328130     0.341023     0.002716
      71     H        3         0.330845     0.328130     0.341025     0.002716
      72     H        3         0.323366     0.322819     0.353815     0.000546
      73     H        3         0.323360     0.322814     0.353827     0.000546
      74     H        3         0.323349     0.322804     0.353846     0.000545
      75     H        3         0.323356     0.322810     0.353835     0.000546
      76     H        3         0.329552     0.326960     0.343488     0.002592
      77     H        3         0.329552     0.326961     0.343487     0.002592
 # Total charge and spin      175.000000   141.000000     6.000000    34.000000

 !-----------------------------------------------------------------------------!

 !-----------------------------------------------------------------------------!
                           Hirshfeld Charges

  #Atom  Element  Kind  Ref Charge     Population       Spin moment  Net charge
      1       Fe     1      16.000   10.755   6.028            4.727     -0.783
      2       Fe     1      16.000   10.762   6.038            4.724     -0.800
      3       Fe     1      16.000   10.765   6.055            4.710     -0.820
      4       Fe     1      16.000   10.359   6.461            3.898     -0.819
      5       Fe     1      16.000   10.739   6.022            4.717     -0.762
      6       Fe     1      16.000   10.763   6.040            4.723     -0.802
      7       Fe     1      16.000   10.756   6.029            4.727     -0.784
      8       O      2       6.000    3.366   3.339            0.027     -0.705
      9       O      2       6.000    3.366   3.339            0.027     -0.705
     10       O      2       6.000    3.157   3.054            0.103     -0.212
     11       O      2       6.000    3.157   3.054            0.103     -0.212
     12       O      2       6.000    3.368   3.342            0.026     -0.710
     13       O      2       6.000    3.368   3.342            0.026     -0.710
     14       O      2       6.000    3.158   3.055            0.103     -0.213
     15       O      2       6.000    3.158   3.055            0.103     -0.213
     16       O      2       6.000    3.375   3.350            0.024     -0.725
     17       O      2       6.000    3.375   3.350            0.024     -0.725
     18       O      2       6.000    3.161   3.059            0.102     -0.220
     19       O      2       6.000    3.161   3.059            0.102     -0.220
     20       O      2       6.000    3.408   3.396            0.012     -0.804
     21       O      2       6.000    3.408   3.396            0.012     -0.804
     22       O      2       6.000    3.174   3.082            0.093     -0.256
     23       O      2       6.000    3.174   3.082            0.093     -0.256
     24       O      2       6.000    3.379   3.355            0.024     -0.734
     25       O      2       6.000    3.379   3.355            0.024     -0.734
     26       O      2       6.000    3.176   3.084            0.092     -0.260
     27       O      2       6.000    3.176   3.084            0.092     -0.260
     28       O      2       6.000    3.369   3.343            0.026     -0.711
     29       O      2       6.000    3.369   3.343            0.026     -0.711
     30       O      2       6.000    3.162   3.060            0.102     -0.223
     31       O      2       6.000    3.162   3.060            0.102     -0.223
     32       O      2       6.000    3.366   3.339            0.027     -0.705
     33       O      2       6.000    3.366   3.339            0.027     -0.705
     34       O      2       6.000    3.158   3.055            0.103     -0.214
     35       O      2       6.000    3.158   3.055            0.103     -0.214
     36       H      3       1.000    0.201   0.200            0.000      0.599
     37       H      3       1.000    0.201   0.200            0.000      0.599
     38       H      3       1.000    0.201   0.200            0.000      0.599
     39       H      3       1.000    0.201   0.200            0.000      0.599
     40       H      3       1.000    0.204   0.201            0.003      0.595
     41       H      3       1.000    0.204   0.201            0.003      0.595
     42       H      3       1.000    0.201   0.201            0.000      0.598
     43       H      3       1.000    0.201   0.201            0.000      0.598
     44       H      3       1.000    0.201   0.201            0.000      0.598
     45       H      3       1.000    0.201   0.201            0.000      0.598
     46       H      3       1.000    0.204   0.201            0.003      0.594
     47       H      3       1.000    0.204   0.201            0.003      0.594
     48       H      3       1.000    0.202   0.202            0.000      0.595
     49       H      3       1.000    0.202   0.202            0.000      0.596
     50       H      3       1.000    0.202   0.202            0.000      0.596
     51       H      3       1.000    0.202   0.202            0.000      0.595
     52       H      3       1.000    0.205   0.202            0.003      0.592
     53       H      3       1.000    0.205   0.202            0.003      0.592
     54       H      3       1.000    0.206   0.206            0.000      0.588
     55       H      3       1.000    0.206   0.206            0.000      0.588
     56       H      3       1.000    0.206   0.206            0.000      0.588
     57       H      3       1.000    0.206   0.206            0.000      0.588
     58       H      3       1.000    0.209   0.207            0.002      0.584
     59       H      3       1.000    0.209   0.207            0.002      0.584
     60       H      3       1.000    0.202   0.202            0.000      0.596
     61       H      3       1.000    0.202   0.202            0.000      0.596
     62       H      3       1.000    0.202   0.202            0.000      0.596
     63       H      3       1.000    0.202   0.202            0.000      0.596
     64       H      3       1.000    0.209   0.207            0.002      0.584
     65       H      3       1.000    0.209   0.207            0.002      0.584
     66       H      3       1.000    0.201   0.201            0.000      0.598
     67       H      3       1.000    0.201   0.201            0.000      0.598
     68       H      3       1.000    0.201   0.201            0.000      0.598
     69       H      3       1.000    0.201   0.201            0.000      0.598
     70       H      3       1.000    0.205   0.202            0.003      0.593
     71       H      3       1.000    0.205   0.202            0.003      0.593
     72       H      3       1.000    0.201   0.200            0.000      0.599
     73       H      3       1.000    0.201   0.200            0.000      0.599
     74       H      3       1.000    0.201   0.200            0.000      0.599
     75       H      3       1.000    0.201   0.200            0.000      0.599
     76       H      3       1.000    0.204   0.202            0.003      0.594
     77       H      3       1.000    0.204   0.202            0.003      0.594

  Total Charge                                                            6.013
 !-----------------------------------------------------------------------------!
  
  Eigenvalues of the occupied subspace spin            1
 ---------------------------------------------
      -5.10689016     -5.10618294     -5.09654261     -5.09320733
      -5.06874719     -5.05778463     -4.72035212     -3.60306463
      -3.60230007     -3.60115360     -3.60044787     -3.60028011
      -3.59957343     -3.59276639     -3.59084030     -3.58987462
      -3.58937256     -3.58753065     -3.58655249     -3.56471428
      -3.56349400     -3.56163491     -3.55395819     -3.55248979
      -3.55085343     -3.26846111     -3.20205437     -3.18774566
      -1.74507133     -1.74223202     -1.74172621     -1.73935659
      -1.73719591     -1.73495485     -1.73417413     -1.73187136
      -1.72141762     -1.71962942     -1.71678270     -1.71485303
[...]
 flops     8 x     2 x    13             19079424     100.0%      0.0%      0.0%
 flops     2 x     8 x    13             19079424     100.0%      0.0%      0.0%
 flops    15 x    15 x    32             19224000     100.0%      0.0%      0.0%
 flops    15 x    32 x    15             19224000     100.0%      0.0%      0.0%
 flops    32 x    15 x    15             19224000     100.0%      0.0%      0.0%
 flops    19 x    19 x    13             20499024     100.0%      0.0%      0.0%
 flops    36 x    13 x    36             21565440     100.0%      0.0%      0.0%
 flops     8 x     2 x    15             22014720     100.0%      0.0%      0.0%
 flops     2 x     8 x    15             22014720     100.0%      0.0%      0.0%
 flops     2 x    13 x     2             22014720     100.0%      0.0%      0.0%
 flops    15 x    15 x    37             22494150     100.0%      0.0%      0.0%
 flops    37 x    13 x    13             23548798     100.0%      0.0%      0.0%
 flops    19 x    19 x    15             23652720     100.0%      0.0%      0.0%
 flops    13 x    32 x    38             24407552     100.0%      0.0%      0.0%
 flops    32 x    13 x    38             24407552     100.0%      0.0%      0.0%
 flops    36 x    15 x    36             24883200     100.0%      0.0%      0.0%
 flops     2 x    15 x     2             25189920     100.0%      0.0%      0.0%
 flops     8 x    19 x    13             30209088     100.0%      0.0%      0.0%
 flops    19 x     8 x    13             30209088     100.0%      0.0%      0.0%
 flops    37 x    15 x    15             31351950     100.0%      0.0%      0.0%
 flops    38 x    32 x    38             33269760     100.0%      0.0%      0.0%
 flops    38 x    13 x    32             34018816     100.0%      0.0%      0.0%
 flops    38 x    32 x    13             34018816     100.0%      0.0%      0.0%
 flops     8 x    19 x    15             34856640     100.0%      0.0%      0.0%
 flops     2 x    13 x    19             34856640     100.0%      0.0%      0.0%
 flops    19 x     8 x    15             34856640     100.0%      0.0%      0.0%
 flops    19 x    13 x     2             34856640     100.0%      0.0%      0.0%
 flops    15 x    32 x    38             35203200     100.0%      0.0%      0.0%
 flops    32 x    15 x    38             35203200     100.0%      0.0%      0.0%
 flops    36 x    13 x    37             38787840     100.0%      0.0%      0.0%
 flops    37 x    13 x    36             38787840     100.0%      0.0%      0.0%
 flops     2 x    15 x    19             39884040     100.0%      0.0%      0.0%
 flops    19 x    15 x     2             39884040     100.0%      0.0%      0.0%
 flops    36 x    15 x    37             44755200     100.0%      0.0%      0.0%
 flops    37 x    15 x    36             44755200     100.0%      0.0%      0.0%
 flops    38 x    15 x    32             49065600     100.0%      0.0%      0.0%
 flops    38 x    32 x    15             49065600     100.0%      0.0%      0.0%
 flops     8 x     8 x    13             52695552     100.0%      0.0%      0.0%
 flops    19 x    13 x    19             55189680     100.0%      0.0%      0.0%
 flops     2 x    13 x     8             58705920     100.0%      0.0%      0.0%
 flops     8 x    13 x     2             58705920     100.0%      0.0%      0.0%
 flops     8 x     8 x    15             60802560     100.0%      0.0%      0.0%
 flops    19 x    15 x    19             63149730     100.0%      0.0%      0.0%
 flops     2 x    15 x     8             67173120     100.0%      0.0%      0.0%
 flops     8 x    15 x     2             67173120     100.0%      0.0%      0.0%
 flops    37 x    13 x    37             69764240     100.0%      0.0%      0.0%
 flops    37 x    15 x    37             80497200     100.0%      0.0%      0.0%
 flops    13 x    32 x    36             92491776     100.0%      0.0%      0.0%
 flops    32 x    13 x    36             92491776     100.0%      0.0%      0.0%
 flops     8 x    13 x    19             92951040     100.0%      0.0%      0.0%
 flops    19 x    13 x     8             92951040     100.0%      0.0%      0.0%
 flops     8 x    15 x    19            106357440     100.0%      0.0%      0.0%
 flops    19 x    15 x     8            106357440     100.0%      0.0%      0.0%
 flops    32 x    32 x    13            113737728     100.0%      0.0%      0.0%
 flops    13 x    32 x    32            113737728     100.0%      0.0%      0.0%
 flops    32 x    13 x    32            113737728     100.0%      0.0%      0.0%
 flops    36 x    32 x    38            126074880     100.0%      0.0%      0.0%
 flops    38 x    32 x    36            126074880     100.0%      0.0%      0.0%
 flops    36 x    13 x    32            128913408     100.0%      0.0%      0.0%
 flops    36 x    32 x    13            128913408     100.0%      0.0%      0.0%
 flops    15 x    32 x    36            133401600     100.0%      0.0%      0.0%
 flops    32 x    15 x    36            133401600     100.0%      0.0%      0.0%
 flops     8 x    13 x     8            156549120     100.0%      0.0%      0.0%
 flops     2 x     2 x    32            162279936     100.0%      0.0%      0.0%
 flops    13 x    32 x    37            166356736     100.0%      0.0%      0.0%
 flops    32 x    13 x    37            166356736     100.0%      0.0%      0.0%
 flops     8 x    15 x     8            179128320     100.0%      0.0%      0.0%
 flops    36 x    15 x    32            185932800     100.0%      0.0%      0.0%
 flops    36 x    32 x    15            185932800     100.0%      0.0%      0.0%
 flops    32 x    32 x    15            205056000     100.0%      0.0%      0.0%
 flops    15 x    32 x    32            205056000     100.0%      0.0%      0.0%
 flops    32 x    15 x    32            205056000     100.0%      0.0%      0.0%
 flops    37 x    32 x    38            226759680     100.0%      0.0%      0.0%
 flops    38 x    32 x    37            226759680     100.0%      0.0%      0.0%
 flops    37 x    32 x    13            231865088     100.0%      0.0%      0.0%
 flops    37 x    13 x    32            231865088     100.0%      0.0%      0.0%
 flops    15 x    32 x    37            239937600     100.0%      0.0%      0.0%
 flops    32 x    15 x    37            239937600     100.0%      0.0%      0.0%
 flops    19 x     2 x    32            250967808     100.0%      0.0%      0.0%
 flops     2 x    19 x    32            250967808     100.0%      0.0%      0.0%
 flops    37 x    32 x    15            334420800     100.0%      0.0%      0.0%
 flops    37 x    15 x    32            334420800     100.0%      0.0%      0.0%
 flops     8 x     2 x    32            422682624     100.0%      0.0%      0.0%
 flops     2 x     8 x    32            422682624     100.0%      0.0%      0.0%
 flops    19 x    19 x    32            454132224     100.0%      0.0%      0.0%
 flops    36 x    32 x    36            477757440     100.0%      0.0%      0.0%
 flops     2 x    32 x     2            485452800     100.0%      0.0%      0.0%
 flops    32 x    32 x    38            615821312     100.0%      0.0%      0.0%
 flops     8 x    19 x    32            669247488     100.0%      0.0%      0.0%
 flops    19 x     8 x    32            669247488     100.0%      0.0%      0.0%
 flops    19 x    32 x     2            768633600     100.0%      0.0%      0.0%
 flops     2 x    32 x    19            768633600     100.0%      0.0%      0.0%
 flops    38 x    32 x    32            858320896     100.0%      0.0%      0.0%
 flops    37 x    32 x    36            859299840     100.0%      0.0%      0.0%
 flops    36 x    32 x    37            859299840     100.0%      0.0%      0.0%
 flops     8 x     8 x    32           1167409152     100.0%      0.0%      0.0%
 flops    19 x    32 x    19           1217003200     100.0%      0.0%      0.0%
 flops     8 x    32 x     2           1294540800     100.0%      0.0%      0.0%
 flops     2 x    32 x     8           1294540800     100.0%      0.0%      0.0%
 flops    37 x    32 x    37           1545546240     100.0%      0.0%      0.0%
 flops    19 x    32 x     8           2049689600     100.0%      0.0%      0.0%
 flops     8 x    32 x    19           2049689600     100.0%      0.0%      0.0%
 flops    32 x    32 x    36           2333638656     100.0%      0.0%      0.0%
 flops    36 x    32 x    32           3252584448     100.0%      0.0%      0.0%
 flops    32 x    32 x    32           3307143168     100.0%      0.0%      0.0%
 flops     8 x    32 x     8           3452108800     100.0%      0.0%      0.0%
 flops    32 x    32 x    37           4197308416     100.0%      0.0%      0.0%
 flops    37 x    32 x    32           5850134528     100.0%      0.0%      0.0%
 flops inhomo. stacks                           0       0.0%      0.0%      0.0%
 flops total                        49.449703E+09     100.0%      0.0%      0.0%
 flops max/rank                      1.101880E+09     100.0%      0.0%      0.0%
 matmuls inhomo. stacks                         0       0.0%      0.0%      0.0%
 matmuls total                           10860718     100.0%      0.0%      0.0%
 number of processed stacks               2464394     100.0%      0.0%      0.0%
 average stack size                                     4.4       0.0       0.0
 marketing flops                    54.213583E+09
 -------------------------------------------------------------------------------
 # multiplications                           1937
 max memory usage/rank             441.573376E+06
 # max total images/rank                        1
 # max 3D layers                                1
 # MPI messages exchanged                 6136416
 MPI messages size (bytes):
  total size                        20.942436E+09
  min size                           0.000000E+00
  max size                          11.552000E+03
  average size                       3.412812E+03
 MPI breakdown and total messages size (bytes):
             size <=      128             3681634                        0
       128 < size <=     8192              795410               4625418072
      8192 < size <=    32768             1659372              16317017640
     32768 < size <=   131072                   0                        0
    131072 < size <=  4194304                   0                        0
   4194304 < size <= 16777216                   0                        0
  16777216 < size                               0                        0
 -------------------------------------------------------------------------------

 MEMORY| Estimated peak process memory [MiB]                                 422

 -------------------------------------------------------------------------------
 ----                             MULTIGRID INFO                            ----
 -------------------------------------------------------------------------------
 count for grid        1:        2403237          cutoff [a.u.]          250.00
 count for grid        2:         881857          cutoff [a.u.]           83.33
 count for grid        3:         416613          cutoff [a.u.]           27.78
 count for grid        4:         123223          cutoff [a.u.]            9.26
 count for grid        5:           1440          cutoff [a.u.]            3.09
 total gridlevel count  :        3826370

 -------------------------------------------------------------------------------
 -                                                                             -
 -                         MESSAGE PASSING PERFORMANCE                         -
 -                                                                             -
 -------------------------------------------------------------------------------

 ROUTINE             CALLS      AVE VOLUME [Bytes]
 MP_Group               30
 MP_Bcast             1081                 301695.
 MP_Allreduce         5880                    730.
 MP_Sync               703
 MP_Alltoall          7688                1903219.
 MP_ISendRecv       144716                  44316.
 MP_Wait            383372
 MP_comm_split           2
 MP_ISend           112792                  54677.
 MP_IRecv           112792                  54412.
 MP_Recv                88                  47628.
 MP_Memory           77494
 -------------------------------------------------------------------------------


 -------------------------------------------------------------------------------
 -                                                                             -
 -                           R E F E R E N C E S                               -
 -                                                                             -
 -------------------------------------------------------------------------------
 
 CP2K version 5.1, the CP2K developers group (2017).
 CP2K is freely available from https://www.cp2k.org/ .

 Schuett, Ole; Messmer, Peter; Hutter, Juerg; VandeVondele, Joost. 
 Electronic Structure Calculations on Graphics Processing Units, John Wiley & Sons, Ltd, 173-190 (2016). 
 GPU-Accelerated Sparse Matrix-Matrix Multiplication for Linear Scaling Density Functional Theory.
 http://dx.doi.org/10.1002/9781118670712.ch8


 Borstnik, U; VandeVondele, J; Weber, V; Hutter, J. 
 PARALLEL COMPUTING, 40 (5-6), 47-58 (2014). 
 Sparse matrix multiplication: The distributed block-compressed sparse
 row library.
 http://dx.doi.org/10.1016/j.parco.2014.03.012


 Hutter, J; Iannuzzi, M; Schiffmann, F; VandeVondele, J. 
 WILEY INTERDISCIPLINARY REVIEWS-COMPUTATIONAL MOLECULAR SCIENCE, 4 (1), 15-25 (2014). 
 CP2K: atomistic simulations of condensed matter systems.
 http://dx.doi.org/10.1002/wcms.1159


 Guidon, M; Hutter, J; VandeVondele, J. 
 JOURNAL OF CHEMICAL THEORY AND COMPUTATION, 5 (11), 3010-3021 (2009). 
 Robust Periodic Hartree-Fock Exchange for Large-Scale Simulations Using
 Gaussian Basis Sets.
 http://dx.doi.org/10.1021/ct900494g


 Guidon, M; Schiffmann, F; Hutter, J; VandeVondele, J. 
 JOURNAL OF CHEMICAL PHYSICS, 128 (21), 214104 (2008). 
 Ab initio molecular dynamics using hybrid density functionals.
 http://dx.doi.org/10.1063/1.2931945


 Krack, M. 
 THEORETICAL CHEMISTRY ACCOUNTS, 114 (1-3), 145-152 (2005). 
 Pseudopotentials for H to Kr optimized for gradient-corrected
 exchange-correlation functionals.
 http://dx.doi.org/10.1007/s00214-005-0655-y


 VandeVondele, J; Krack, M; Mohamed, F; Parrinello, M; Chassaing, T;
 Hutter, J. COMPUTER PHYSICS COMMUNICATIONS, 167 (2), 103-128 (2005). 
 QUICKSTEP: Fast and accurate density functional calculations using a
 mixed Gaussian and plane waves approach.
 http://dx.doi.org/10.1016/j.cpc.2004.12.014


 Frigo, M; Johnson, SG. 
 PROCEEDINGS OF THE IEEE, 93 (2), 216-231 (2005). 
 The design and implementation of FFTW3.
 http://dx.doi.org/10.1109/JPROC.2004.840301


 VandeVondele, J; Hutter, J. 
 JOURNAL OF CHEMICAL PHYSICS, 118 (10), 4365-4369 (2003). 
 An efficient orbital transformation method for electronic structure
 calculations.
 http://dx.doi.org/10.1063/1.1543154


 Hartwigsen, C; Goedecker, S; Hutter, J. 
 PHYSICAL REVIEW B, 58 (7), 3641-3662 (1998). 
 Relativistic separable dual-space Gaussian pseudopotentials from H to Rn.
 http://dx.doi.org/10.1103/PhysRevB.58.3641


 Lippert, G; Hutter, J; Parrinello, M. 
 MOLECULAR PHYSICS, 92 (3), 477-487 (1997). 
 A hybrid Gaussian and plane wave density functional scheme.
 http://dx.doi.org/10.1080/002689797170220


 Goedecker, S; Teter, M; Hutter, J. 
 PHYSICAL REVIEW B, 54 (3), 1703-1710 (1996). 
 Separable dual-space Gaussian pseudopotentials.
 http://dx.doi.org/10.1103/PhysRevB.54.1703


 -------------------------------------------------------------------------------
 -                                                                             -
 -                                T I M I N G                                  -
 -                                                                             -
 -------------------------------------------------------------------------------
 SUBROUTINE                       CALLS  ASD         SELF TIME        TOTAL TIME
                                MAXIMUM       AVERAGE  MAXIMUM  AVERAGE  MAXIMUM
 CP2K                                 1  1.0    0.011    0.019  140.896  140.896
 qs_energies                          1  2.0    0.000    0.000  140.585  140.585
 scf_env_do_scf                       1  3.0    0.000    0.000  139.566  139.566
 qs_ks_update_qs_env                 78  5.0    0.000    0.001   93.860   93.865
 rebuild_ks_matrix                   77  6.0    0.000    0.000   93.820   93.826
 qs_ks_build_kohn_sham_matrix        77  7.0    0.007    0.008   93.820   93.825
 scf_env_do_scf_inner_loop           77  4.0    0.003    0.006   90.465   90.476
 hfx_ks_matrix                       77  8.0    0.001    0.001   70.317   70.426
 integrate_four_center               77  9.0    0.079    0.737   70.312   70.420
 integrate_four_center_main          77 10.0    0.010    0.012   62.566   66.132
 integrate_four_center_bin         4928 11.0   62.556   66.122   62.556   66.122
 init_scf_loop                        1  4.0    0.000    0.000   49.035   49.035
 qs_rho_update_rho                   78  5.0    0.000    0.001   43.558   43.568
 calculate_rho_elec                 156  6.0    1.546    6.558   43.558   43.568
 density_rs2pw                      156  7.0    0.008    0.011   38.918   40.217
 pw_transfer                       1520  8.9    0.065    0.080   31.404   32.040
 fft_wrap_pw1pw2                   1366  9.9    0.009    0.012   30.907   31.561
 fft_wrap_pw1pw2_250                430 10.5    1.706    2.215   26.123   26.799
 rs_pw_transfer                    1174  9.0    0.013    0.019   24.701   25.646
 fft3d_ps                          1366 11.9   10.443   11.723   25.017   25.396
 sum_up_and_integrate                39  8.0    0.000    0.001   18.454   18.458
 integrate_v_rspace                  78  9.0    0.927    2.933   18.453   18.458
 potential_pw2rs                     78 10.0    0.015    0.020   15.332   15.370
 mp_alltoall_z22v                  1366 13.9   10.815   11.690   10.815   11.690
 mp_waitany                       19824 11.0    8.010   10.682    8.010   10.682
 mp_sync                            703 10.9    5.713   10.452    5.713   10.452
 rs_pw_transfer_RS2PW_250           158  9.0    3.568    5.557    7.970    9.396
 yz_to_x                            391 12.6    1.232    1.348    7.931    8.610
 mp_waitall_1                    363548 12.2    5.136    6.519    5.136    6.519
 x_to_yz                            273 12.9    1.426    1.515    5.471    5.728
 rs_pw_transfer_RS2PW_90            156  9.0    1.605    2.432    3.654    4.781
 rs_pw_transfer_PW2RS_250            80 11.9    2.051    3.188    3.439    4.698
 fft_wrap_pw1pw2_90                 234 11.0    0.148    0.217    3.409    3.769
 mp_alltoall_d11v                   895 11.2    2.648    3.378    2.648    3.378
 rs_distribute_matrix               234  8.0    0.015    0.045    2.625    3.345
 rs_pw_transfer_RS2PW_30            156  9.0    1.395    1.575    3.063    3.219
 rs_pw_transfer_PW2RS_90             78 12.0    0.808    1.105    2.515    2.962
 -------------------------------------------------------------------------------

 The number of warnings for this run is : 0
 
 -------------------------------------------------------------------------------
  **** **** ******  **  PROGRAM ENDED AT                 2019-07-13 09:07:26.068
 ***** ** ***  *** **   PROGRAM RAN ON            cpn-u27-15.cbls.ccr.buffalo.ed
 **    ****   ******    PROGRAM RAN BY                                  pavankum
 ***** **    ** ** **   PROGRAM PROCESS ID                                445272
  **** **  *******  **  PROGRAM STOPPED IN /projects/academic/mdupuis2/pavan/VAB
                                           _calculation/23.Fe_clust_paper/7units
                                           _dzv/GPW/largecell/point_0.9
