 DBCSR| Multiplication driver                                               BLAS
 DBCSR| Multrec recursion limit                                              512
 DBCSR| Multiplication stack size                                           1000
 DBCSR| Maximum elements for images                                    UNLIMITED
 DBCSR| Multiplicative factor virtual images                                   1
 DBCSR| Multiplication size stacks                                             3
 DBCSR| Number of 3D layers                                               SINGLE
 DBCSR| Use MPI memory allocation                                              T
 DBCSR| Use RMA algorithm                                                      F
 DBCSR| Use Communication thread                                               T
 DBCSR| Communication thread load                                             87


  **** **** ******  **  PROGRAM STARTED AT               2019-07-13 08:59:05.334
 ***** ** ***  *** **   PROGRAM STARTED ON        cpn-u26-09.cbls.ccr.buffalo.ed
 **    ****   ******    PROGRAM STARTED BY                              pavankum
 ***** **    ** ** **   PROGRAM PROCESS ID                                362385
  **** **  *******  **  PROGRAM STARTED IN /projects/academic/mdupuis2/pavan/VAB
                                           _calculation/23.Fe_clust_paper/7units
                                           _dzv/GPW/largecell/point_0.1

 CP2K| version string:                                          CP2K version 5.1
 CP2K| source code revision number:                                    svn:18091
 CP2K| cp2kflags: libint fftw3 libxc parallel mpi3 scalapack has_no_shared_glibc
 CP2K|             max_contr=4
 CP2K| is freely available from                            https://www.cp2k.org/
 CP2K| Program compiled at                          Wed Mar 21 12:31:25 EDT 2018
 CP2K| Program compiled on                       srv-k07-14.cbls.ccr.buffalo.edu
 CP2K| Program compiled for                                                local
 CP2K| Data directory path    /projects/academic/mdupuis2/pavan/cp2k/cp2k-5.1/da
 CP2K| Input file name                                                 input.inp

 GLOBAL| Force Environment number                                              1
 GLOBAL| Basis set file name            /projects/academic/mdupuis2/pavan/BASIS_
 GLOBAL| Potential file name            /projects/academic/mdupuis2/pavan/POTENT
 GLOBAL| MM Potential file name                                     MM_POTENTIAL
 GLOBAL| Coordinate file name                                   intermediate.xyz
 GLOBAL| Method name                                                        CP2K
 GLOBAL| Project name                                                      p_fe_
 GLOBAL| Preferred FFT library                                             FFTW3
 GLOBAL| Preferred diagonalization lib.                                       SL
 GLOBAL| Run type                                                         ENERGY
 GLOBAL| All-to-all communication in single precision                          F
 GLOBAL| FFTs using library dependent lengths                                  T
 GLOBAL| Global print level                                               MEDIUM
 GLOBAL| Total number of message passing processes                           144
 GLOBAL| Number of threads for this process                                    1
 GLOBAL| This output is from process                                           0
 GLOBAL| CPU model name :  Intel(R) Xeon(R) Gold 6126 CPU @ 2.60GHz

 MEMORY| system memory details [Kb]
 MEMORY|                        rank 0           min           max       average
 MEMORY| MemTotal            196307064     196307064     196307064     196307064
 MEMORY| MemFree             144791304     134995636     148651968     140598116
 MEMORY| Buffers                435672        435132        467412        442356
 MEMORY| Cached               44691632      41042280      54270036      48894926
 MEMORY| Slab                   940928        887144       1223224       1020255
 MEMORY| SReclaimable           609164        561504        893416        690788
 MEMORY| MemLikelyFree       190527772     190527772     190724152     190626186


 *** Fundamental physical constants (SI units) ***

 *** Literature: B. J. Mohr and B. N. Taylor,
 ***             CODATA recommended values of the fundamental physical
 ***             constants: 2006, Web Version 5.1
 ***             http://physics.nist.gov/constants

 Speed of light in vacuum [m/s]                             2.99792458000000E+08
 Magnetic constant or permeability of vacuum [N/A**2]       1.25663706143592E-06
 Electric constant or permittivity of vacuum [F/m]          8.85418781762039E-12
 Planck constant (h) [J*s]                                  6.62606896000000E-34
 Planck constant (h-bar) [J*s]                              1.05457162825177E-34
 Elementary charge [C]                                      1.60217648700000E-19
 Electron mass [kg]                                         9.10938215000000E-31
 Electron g factor [ ]                                     -2.00231930436220E+00
 Proton mass [kg]                                           1.67262163700000E-27
 Fine-structure constant                                    7.29735253760000E-03
 Rydberg constant [1/m]                                     1.09737315685270E+07
 Avogadro constant [1/mol]                                  6.02214179000000E+23
 Boltzmann constant [J/K]                                   1.38065040000000E-23
 Atomic mass unit [kg]                                      1.66053878200000E-27
 Bohr radius [m]                                            5.29177208590000E-11

 *** Conversion factors ***

 [u] -> [a.u.]                                              1.82288848426455E+03
 [Angstrom] -> [Bohr] = [a.u.]                              1.88972613288564E+00
 [a.u.] = [Bohr] -> [Angstrom]                              5.29177208590000E-01
 [a.u.] -> [s]                                              2.41888432650478E-17
 [a.u.] -> [fs]                                             2.41888432650478E-02
 [a.u.] -> [J]                                              4.35974393937059E-18
 [a.u.] -> [N]                                              8.23872205491840E-08
 [a.u.] -> [K]                                              3.15774647902944E+05
 [a.u.] -> [kJ/mol]                                         2.62549961709828E+03
 [a.u.] -> [kcal/mol]                                       6.27509468713739E+02
 [a.u.] -> [Pa]                                             2.94210107994716E+13
 [a.u.] -> [bar]                                            2.94210107994716E+08
 [a.u.] -> [atm]                                            2.90362800883016E+08
 [a.u.] -> [eV]                                             2.72113838565563E+01
 [a.u.] -> [Hz]                                             6.57968392072181E+15
 [a.u.] -> [1/cm] (wave numbers)                            2.19474631370540E+05
 [a.u./Bohr**2] -> [1/cm]                                   5.14048714338585E+03
 

 CELL_TOP| Volume [angstrom^3]:                                        26196.625
 CELL_TOP| Vector a [angstrom    21.385     0.000     0.000    |a| =      21.385
 CELL_TOP| Vector b [angstrom     0.000    35.000     0.000    |b| =      35.000
 CELL_TOP| Vector c [angstrom     0.000     0.000    35.000    |c| =      35.000
 CELL_TOP| Angle (b,c), alpha [degree]:                                   90.000
 CELL_TOP| Angle (a,c), beta  [degree]:                                   90.000
 CELL_TOP| Angle (a,b), gamma [degree]:                                   90.000
 CELL_TOP| Numerically orthorhombic:                                         YES

 CELL| Volume [angstrom^3]:                                            26196.625
 CELL| Vector a [angstrom]:      21.385     0.000     0.000    |a| =      21.385
 CELL| Vector b [angstrom]:       0.000    35.000     0.000    |b| =      35.000
 CELL| Vector c [angstrom]:       0.000     0.000    35.000    |c| =      35.000
 CELL| Angle (b,c), alpha [degree]:                                       90.000
 CELL| Angle (a,c), beta  [degree]:                                       90.000
 CELL| Angle (a,b), gamma [degree]:                                       90.000
 CELL| Numerically orthorhombic:                                             YES

 CELL_REF| Volume [angstrom^3]:                                        26196.625
 CELL_REF| Vector a [angstrom    21.385     0.000     0.000    |a| =      21.385
 CELL_REF| Vector b [angstrom     0.000    35.000     0.000    |b| =      35.000
 CELL_REF| Vector c [angstrom     0.000     0.000    35.000    |c| =      35.000
 CELL_REF| Angle (b,c), alpha [degree]:                                   90.000
 CELL_REF| Angle (a,c), beta  [degree]:                                   90.000
 CELL_REF| Angle (a,b), gamma [degree]:                                   90.000
 CELL_REF| Numerically orthorhombic:                                         YES

 *******************************************************************************
 *******************************************************************************
 **                                                                           **
 **     #####                         ##              ##                      **
 **    ##   ##            ##          ##              ##                      **
 **   ##     ##                       ##            ######                    **
 **   ##     ##  ##   ##  ##   #####  ##  ##   ####   ##    #####    #####    **
 **   ##     ##  ##   ##  ##  ##      ## ##   ##      ##   ##   ##  ##   ##   **
 **   ##  ## ##  ##   ##  ##  ##      ####     ###    ##   ######   ######    **
 **    ##  ###   ##   ##  ##  ##      ## ##      ##   ##   ##       ##        **
 **     #######   #####   ##   #####  ##  ##  ####    ##    #####   ##        **
 **           ##                                                    ##        **
 **                                                                           **
 **                                                ... make the atoms dance   **
 **                                                                           **
 **            Copyright (C) by CP2K developers group (2000 - 2017)           **
 **                                                                           **
 *******************************************************************************

 DFT| Spin unrestricted (spin-polarized) Kohn-Sham calculation               UKS
 DFT| Multiplicity                                                            35
 DFT| Number of spin states                                                    2
 DFT| Charge                                                                   6
 DFT| Self-interaction correction (SIC)                                       NO
 DFT| Cutoffs: density                                              1.000000E-10
 DFT|          gradient                                             1.000000E-10
 DFT|          tau                                                  1.000000E-10
 DFT|          cutoff_smoothing_range                               0.000000E+00
 DFT| XC density smoothing                                                  NONE
 DFT| XC derivatives                                                          PW
 FUNCTIONAL| NO EXCHANGE-CORRELATION FUNCTIONAL USED.

 QS| Method:                                                                 GPW
 QS| Density plane wave grid type                        NON-SPHERICAL FULLSPACE
 QS| Number of grid levels:                                                    5
 QS| Density cutoff [a.u.]:                                                250.0
 QS| Multi grid cutoff [a.u.]: 1) grid level                               250.0
 QS|                           2) grid level                                83.3
 QS|                           3) grid level                                27.8
 QS|                           4) grid level                                 9.3
 QS|                           5) grid level                                 3.1
 QS| Grid level progression factor:                                          3.0
 QS| Relative density cutoff [a.u.]:                                        30.0
 QS| Consistent realspace mapping and integration 
 QS| Interaction thresholds: eps_pgf_orb:                                1.0E-10
 QS|                         eps_filter_matrix:                          0.0E+00
 QS|                         eps_core_charge:                            1.0E-14
 QS|                         eps_rho_gspace:                             1.0E-12
 QS|                         eps_rho_rspace:                             1.0E-12
 QS|                         eps_gvg_rspace:                             1.0E-06
 QS|                         eps_ppl:                                    1.0E-02
 QS|                         eps_ppnl:                                   1.0E-08


 ATOMIC KIND INFORMATION

  1. Atomic kind: Fe                                    Number of atoms:       7

     Orbital Basis Set                                                   mod-DZV

       Number of orbital shell sets:                                           1
       Number of orbital shells:                                               7
       Number of primitive Cartesian functions:                                6
       Number of Cartesian basis functions:                                   21
       Number of spherical basis functions:                                   19
       Norm type:                                                              2

       Normalised Cartesian orbitals:

                        Set   Shell   Orbital            Exponent    Coefficient

                          1       1    2s                8.424366      -0.545589
                                                         4.825220      -0.832336
                                                         2.198939       0.958990
                                                         0.891661       0.416271
                                                         0.316231       0.012631
                                                         0.103474      -0.013505

                          1       2    3s                8.424366      -0.106056
                                                         4.825220      -0.104587
                                                         2.198939       0.052318
                                                         0.891661      -0.169042
                                                         0.316231       0.061854
                                                         0.103474       0.122891

                          1       3    4s                8.424366      -0.333477
                                                         4.825220      -0.289267
                                                         2.198939      -0.125861
                                                         0.891661      -1.004000
                                                         0.316231       0.780774
                                                         0.103474      -0.187846

                          1       4    3px               8.424366      -1.658234
                                                         4.825220       1.618912
                                                         2.198939       1.969078
                                                         0.891661       0.523780
                                                         0.316231       0.024574
                                                         0.103474      -0.000798
                          1       4    3py               8.424366      -1.658234
                                                         4.825220       1.618912
                                                         2.198939       1.969078
                                                         0.891661       0.523780
                                                         0.316231       0.024574
                                                         0.103474      -0.000798
                          1       4    3pz               8.424366      -1.658234
                                                         4.825220       1.618912
                                                         2.198939       1.969078
                                                         0.891661       0.523780
                                                         0.316231       0.024574
                                                         0.103474      -0.000798

                          1       5    4px               8.424366      -0.105249
                                                         4.825220      -0.126123
                                                         2.198939      -0.349657
                                                         0.891661      -0.133470
                                                         0.316231       0.170554
                                                         0.103474       0.054381
                          1       5    4py               8.424366      -0.105249
                                                         4.825220      -0.126123
                                                         2.198939      -0.349657
                                                         0.891661      -0.133470
                                                         0.316231       0.170554
                                                         0.103474       0.054381
                          1       5    4pz               8.424366      -0.105249
                                                         4.825220      -0.126123
                                                         2.198939      -0.349657
                                                         0.891661      -0.133470
                                                         0.316231       0.170554
                                                         0.103474       0.054381

                          1       6    4dx2              8.424366       7.918298
                                                         4.825220       5.112663
                                                         2.198939       2.118663
                                                         0.891661       0.465004
                                                         0.316231       0.065856
                                                         0.103474       0.002769
                          1       6    4dxy              8.424366      13.714895
                                                         4.825220       8.855393
                                                         2.198939       3.669632
                                                         0.891661       0.805411
                                                         0.316231       0.114066
                                                         0.103474       0.004796
                          1       6    4dxz              8.424366      13.714895
                                                         4.825220       8.855393
                                                         2.198939       3.669632
                                                         0.891661       0.805411
                                                         0.316231       0.114066
                                                         0.103474       0.004796
                          1       6    4dy2              8.424366       7.918298
                                                         4.825220       5.112663
                                                         2.198939       2.118663
                                                         0.891661       0.465004
                                                         0.316231       0.065856
                                                         0.103474       0.002769
                          1       6    4dyz              8.424366      13.714895
                                                         4.825220       8.855393
                                                         2.198939       3.669632
                                                         0.891661       0.805411
                                                         0.316231       0.114066
                                                         0.103474       0.004796
                          1       6    4dz2              8.424366       7.918298
                                                         4.825220       5.112663
                                                         2.198939       2.118663
                                                         0.891661       0.465004
                                                         0.316231       0.065856
                                                         0.103474       0.002769

                          1       7    5dx2              8.424366      -4.223614
                                                         4.825220      -1.970584
                                                         2.198939      -1.543490
                                                         0.891661      -0.041381
                                                         0.316231       0.082821
                                                         0.103474       0.021964
                          1       7    5dxy              8.424366      -7.315513
                                                         4.825220      -3.413151
                                                         2.198939      -2.673404
                                                         0.891661      -0.071673
                                                         0.316231       0.143450
                                                         0.103474       0.038042
                          1       7    5dxz              8.424366      -7.315513
                                                         4.825220      -3.413151
                                                         2.198939      -2.673404
                                                         0.891661      -0.071673
                                                         0.316231       0.143450
                                                         0.103474       0.038042
                          1       7    5dy2              8.424366      -4.223614
                                                         4.825220      -1.970584
                                                         2.198939      -1.543490
                                                         0.891661      -0.041381
                                                         0.316231       0.082821
                                                         0.103474       0.021964
                          1       7    5dyz              8.424366      -7.315513
                                                         4.825220      -3.413151
                                                         2.198939      -2.673404
                                                         0.891661      -0.071673
                                                         0.316231       0.143450
                                                         0.103474       0.038042
                          1       7    5dz2              8.424366      -4.223614
                                                         4.825220      -1.970584
                                                         2.198939      -1.543490
                                                         0.891661      -0.041381
                                                         0.316231       0.082821
                                                         0.103474       0.021964

     GTH Potential information for                                  GTH-BLYP-q16

       Description:                       Goedecker-Teter-Hutter pseudopotential
                                           Goedecker et al., PRB 54, 1703 (1996)
                                          Hartwigsen et al., PRB 58, 3641 (1998)
                                                      Krack, TCA 114, 145 (2005)

       Gaussian exponent of the core charge distribution:               3.858025
       Electronic configuration (s p d ...):                           4   6   6

       Parameters of the local part of the GTH pseudopotential:

                          rloc        C1          C2          C3          C4
                        0.360000    7.011025   -0.222747

       Parameters of the non-local part of the GTH pseudopotential:

                   l      r(l)      h(i,j,l)

                   0    0.276205    0.611496    7.992357
                                    7.992357  -10.318089
                   1    0.247130   -8.710556    8.684169
                                    8.684169  -10.275248
                   2    0.223534  -12.411504

  2. Atomic kind: O                                     Number of atoms:      28

     Orbital Basis Set                                                   mod-DZV

       Number of orbital shell sets:                                           1
       Number of orbital shells:                                               4
       Number of primitive Cartesian functions:                                5
       Number of Cartesian basis functions:                                    8
       Number of spherical basis functions:                                    8
       Norm type:                                                              2

       Normalised Cartesian orbitals:

                        Set   Shell   Orbital            Exponent    Coefficient

                          1       1    2s               10.389228       0.396646
                                                         3.849621       0.208811
                                                         1.388401      -0.301641
                                                         0.496955      -0.274061
                                                         0.162492      -0.033677

                          1       2    3s               10.389228       0.303673
                                                         3.849621       0.240943
                                                         1.388401      -0.313066
                                                         0.496955      -0.043055
                                                         0.162492       0.213991

                          1       3    3px              10.389228      -1.530415
                                                         3.849621      -1.371928
                                                         1.388401      -0.761951
                                                         0.496955      -0.253695
                                                         0.162492      -0.035541
                          1       3    3py              10.389228      -1.530415
                                                         3.849621      -1.371928
                                                         1.388401      -0.761951
                                                         0.496955      -0.253695
                                                         0.162492      -0.035541
                          1       3    3pz              10.389228      -1.530415
                                                         3.849621      -1.371928
                                                         1.388401      -0.761951
                                                         0.496955      -0.253695
                                                         0.162492      -0.035541

                          1       4    4px              10.389228      -0.565392
                                                         3.849621      -0.038231
                                                         1.388401      -0.382373
                                                         0.496955       0.179070
                                                         0.162492       0.122714
                          1       4    4py              10.389228      -0.565392
                                                         3.849621      -0.038231
                                                         1.388401      -0.382373
                                                         0.496955       0.179070
                                                         0.162492       0.122714
                          1       4    4pz              10.389228      -0.565392
                                                         3.849621      -0.038231
                                                         1.388401      -0.382373
                                                         0.496955       0.179070
                                                         0.162492       0.122714

     GTH Potential information for                                   GTH-BLYP-q6

       Description:                       Goedecker-Teter-Hutter pseudopotential
                                           Goedecker et al., PRB 54, 1703 (1996)
                                          Hartwigsen et al., PRB 58, 3641 (1998)
                                                      Krack, TCA 114, 145 (2005)

       Gaussian exponent of the core charge distribution:               8.438331
       Electronic configuration (s p d ...):                               2   4

       Parameters of the local part of the GTH pseudopotential:

                          rloc        C1          C2          C3          C4
                        0.243420  -16.991892    2.566142

       Parameters of the non-local part of the GTH pseudopotential:

                   l      r(l)      h(i,j,l)

                   0    0.220831   18.388851
                   1    0.217201

  3. Atomic kind: H                                     Number of atoms:      42

     Orbital Basis Set                                                   mod-DZV

       Number of orbital shell sets:                                           1
       Number of orbital shells:                                               2
       Number of primitive Cartesian functions:                                5
       Number of Cartesian basis functions:                                    2
       Number of spherical basis functions:                                    2
       Norm type:                                                              2

       Normalised Cartesian orbitals:

                        Set   Shell   Orbital            Exponent    Coefficient

                          1       1    2s               10.068468      -0.133023
                                                         2.680223      -0.177618
                                                         0.791502      -0.258419
                                                         0.239116      -0.107525
                                                         0.082193      -0.014019

                          1       2    3s               10.068468       0.344673
                                                         2.680223       1.819821
                                                         0.791502      -0.999069
                                                         0.239116       0.017430
                                                         0.082193       0.082660

     GTH Potential information for                                   GTH-BLYP-q1

       Description:                       Goedecker-Teter-Hutter pseudopotential
                                           Goedecker et al., PRB 54, 1703 (1996)
                                          Hartwigsen et al., PRB 58, 3641 (1998)
                                                      Krack, TCA 114, 145 (2005)

       Gaussian exponent of the core charge distribution:              12.500000
       Electronic configuration (s p d ...):                                   1

       Parameters of the local part of the GTH pseudopotential:

                          rloc        C1          C2          C3          C4
                        0.200000   -4.195961    0.730498


 MOLECULE KIND INFORMATION


 All atoms are their own molecule, skipping detailed information


 TOTAL NUMBERS AND MAXIMUM NUMBERS

  Total number of            - Atomic kinds:                                   3
                             - Atoms:                                         77
                             - Shell sets:                                    77
                             - Shells:                                       245
                             - Primitive Cartesian functions:                392
                             - Cartesian basis functions:                    455
                             - Spherical basis functions:                    441

  Maximum angular momentum of- Orbital basis functions:                        2
                             - Local part of the GTH pseudopotential:          2
                             - Non-local part of the GTH pseudopotential:      3


 MODULE QUICKSTEP:  ATOMIC COORDINATES IN angstrom

  Atom  Kind  Element       X           Y           Z          Z(eff)       Mass

       1     1 Fe  26   18.337349    0.000001    0.000048     16.00      55.8450
       2     1 Fe  26   15.277988    0.000002    0.000074     16.00      55.8450
       3     1 Fe  26   12.216248   -0.000006    0.000080     16.00      55.8450
       4     1 Fe  26    9.145093   -0.000003   -0.000071     16.00      55.8450
       5     1 Fe  26    6.119019    0.000007    0.000053     16.00      55.8450
       6     1 Fe  26    3.087617    0.000004    0.000129     16.00      55.8450
       7     1 Fe  26    0.012675   -0.000003   -0.000022     16.00      55.8450
       8     2 O    8   18.333561    0.000005    2.143018      6.00      15.9994
       9     2 O    8   18.333499   -0.000002   -2.142982      6.00      15.9994
      10     2 O    8   19.853506   -1.261108   -0.000053      6.00      15.9994
      11     2 O    8   19.853508    1.261106   -0.000081      6.00      15.9994
      12     2 O    8   15.279676   -0.000016    2.143819      6.00      15.9994
      13     2 O    8   15.279619    0.000023   -2.143725      6.00      15.9994
      14     2 O    8   16.809093   -1.260999   -0.000018      6.00      15.9994
      15     2 O    8   16.809093    1.261002   -0.000020      6.00      15.9994
      16     2 O    8   12.239300    0.000140    2.153164      6.00      15.9994
      17     2 O    8   12.239329   -0.000155   -2.153063      6.00      15.9994
      18     2 O    8   13.765895   -1.260875   -0.000002      6.00      15.9994
      19     2 O    8   13.765892    1.260867    0.000024      6.00      15.9994
      20     2 O    8    9.207633   -0.000435    2.184268      6.00      15.9994
      21     2 O    8    9.207752    0.000434   -2.184465      6.00      15.9994
      22     2 O    8   10.739203   -1.264764    0.000449      6.00      15.9994
      23     2 O    8   10.739207    1.264754   -0.000597      6.00      15.9994
      24     2 O    8    6.112658    0.000428    2.281196      6.00      15.9994
      25     2 O    8    6.112543   -0.000406   -2.281083      6.00      15.9994
      26     2 O    8    7.742456   -1.325231   -0.000185      6.00      15.9994
      27     2 O    8    7.742471    1.325237   -0.000118      6.00      15.9994
      28     2 O    8    3.021144   -0.000158    2.170276      6.00      15.9994
      29     2 O    8    3.021331    0.000155   -2.170025      6.00      15.9994
      30     2 O    8    4.474192   -1.318314   -0.000391      6.00      15.9994
      31     2 O    8    4.474198    1.318329    0.000747      6.00      15.9994
      32     2 O    8   -0.007086    0.000024    2.150092      6.00      15.9994
      33     2 O    8   -0.007117   -0.000028   -2.150189      6.00      15.9994
      34     2 O    8    1.503752   -1.258260   -0.000039      6.00      15.9994
      35     2 O    8    1.503746    1.258253   -0.000063      6.00      15.9994
      36     3 H    1   18.368638   -0.794383   -2.689170      1.00       1.0079
      37     3 H    1   18.368599    0.794379   -2.689167      1.00       1.0079
      38     3 H    1   18.368695   -0.794402    2.689161      1.00       1.0079
      39     3 H    1   18.368762    0.794412    2.689157      1.00       1.0079
      40     3 H    1   19.867183   -2.221081   -0.000015      1.00       1.0079
      41     3 H    1   19.867188    2.221078   -0.000026      1.00       1.0079
      42     3 H    1   15.219969   -0.794260   -2.688003      1.00       1.0079
      43     3 H    1   15.219929    0.794279   -2.688017      1.00       1.0079
      44     3 H    1   15.220049   -0.794307    2.688065      1.00       1.0079
      45     3 H    1   15.220065    0.794299    2.688051      1.00       1.0079
      46     3 H    1   16.807615   -2.221196   -0.000001      1.00       1.0079
      47     3 H    1   16.807619    2.221199   -0.000002      1.00       1.0079
      48     3 H    1   12.098725   -0.793911   -2.683081      1.00       1.0079
      49     3 H    1   12.098131    0.793654   -2.682778      1.00       1.0079
      50     3 H    1   12.098164   -0.793704    2.682836      1.00       1.0079
      51     3 H    1   12.098724    0.793943    2.683114      1.00       1.0079
      52     3 H    1   13.748020   -2.220657    0.000153      1.00       1.0079
      53     3 H    1   13.747998    2.220647   -0.000068      1.00       1.0079
      54     3 H    1    9.050529   -0.794977   -2.703070      1.00       1.0079
      55     3 H    1    9.051579    0.795658   -2.703697      1.00       1.0079
      56     3 H    1    9.051323   -0.795710    2.703390      1.00       1.0079
      57     3 H    1    9.050257    0.795013    2.702787      1.00       1.0079
      58     3 H    1   10.696978   -2.222707   -0.000369      1.00       1.0079
      59     3 H    1   10.697007    2.222698    0.000397      1.00       1.0079
      60     3 H    1    6.125352   -0.796060   -2.821381      1.00       1.0079
      61     3 H    1    6.126295    0.795459   -2.820776      1.00       1.0079
      62     3 H    1    6.126145   -0.795453    2.820873      1.00       1.0079
      63     3 H    1    6.125219    0.796089    2.821493      1.00       1.0079
      64     3 H    1    7.713181   -2.280791   -0.000243      1.00       1.0079
      65     3 H    1    7.713184    2.280798   -0.000231      1.00       1.0079
      66     3 H    1    3.185607   -0.795114   -2.689562      1.00       1.0079
      67     3 H    1    3.184843    0.795417   -2.689835      1.00       1.0079
      68     3 H    1    3.184586   -0.795445    2.690073      1.00       1.0079
      69     3 H    1    3.185428    0.795133    2.689781      1.00       1.0079
      70     3 H    1    4.511686   -2.274138    0.000684      1.00       1.0079
      71     3 H    1    4.511654    2.274154   -0.000057      1.00       1.0079
      72     3 H    1    0.115479   -0.793815   -2.684291      1.00       1.0079
      73     3 H    1    0.115348    0.793783   -2.684282      1.00       1.0079
      74     3 H    1    0.115432   -0.793812    2.684128      1.00       1.0079
      75     3 H    1    0.115647    0.793827    2.684129      1.00       1.0079
      76     3 H    1    1.543930   -2.216638   -0.000244      1.00       1.0079
      77     3 H    1    1.543936    2.216629    0.000012      1.00       1.0079




 SCF PARAMETERS         Density guess:                                   RESTART
                        --------------------------------------------------------
                        max_scf:                                            1000
                        max_scf_history:                                       0
                        max_diis:                                              4
                        --------------------------------------------------------
                        eps_scf:                                        1.00E-06
                        eps_scf_history:                                0.00E+00
                        eps_diis:                                       1.00E-01
                        eps_eigval:                                     1.00E-05
                        --------------------------------------------------------
                        level_shift [a.u.]:                                 0.00
                        --------------------------------------------------------
                        Outer loop SCF in use 
                        No variables optimised in outer loop
                        eps_scf                                         1.00E-06
                        max_scf                                              500
                        No outer loop optimization
                        step_size                                       5.00E-01

 PW_GRID| Information for grid number                                          1
 PW_GRID| Grid distributed over                                   144 processors
 PW_GRID| Real space group dimensions                                   144    1
 PW_GRID| the grid is blocked:                                                NO
 PW_GRID| Cutoff [a.u.]                                                    250.0
 PW_GRID| spherical cutoff:                                                   NO
 PW_GRID|   Bounds   1           -144     143                Points:         288
 PW_GRID|   Bounds   2           -240     239                Points:         480
 PW_GRID|   Bounds   3           -240     239                Points:         480
 PW_GRID| Volume element (a.u.^3)  0.2664E-02     Volume (a.u.^3)    176783.5904
 PW_GRID| Grid span                                                    FULLSPACE
 PW_GRID|   Distribution                         Average         Max         Min
 PW_GRID|   G-Vectors                           460800.0      460800      460800
 PW_GRID|   G-Rays                                1600.0        1600        1600
 PW_GRID|   Real Space Points                   460800.0      460800      460800

 PW_GRID| Information for grid number                                          2
 PW_GRID| Grid distributed over                                   144 processors
 PW_GRID| Real space group dimensions                                   144    1
 PW_GRID| the grid is blocked:                                                NO
 PW_GRID| Cutoff [a.u.]                                                     83.3
 PW_GRID| spherical cutoff:                                                   NO
 PW_GRID|   Bounds   1            -84      83                Points:         168
 PW_GRID|   Bounds   2           -137     137                Points:         275
 PW_GRID|   Bounds   3           -137     137                Points:         275
 PW_GRID| Volume element (a.u.^3)  0.1391E-01     Volume (a.u.^3)    176783.5904
 PW_GRID| Grid span                                                    FULLSPACE
 PW_GRID|   Distribution                         Average         Max         Min
 PW_GRID|   G-Vectors                            88229.2       88368       88032
 PW_GRID|   G-Rays                                 525.2         526         524
 PW_GRID|   Real Space Points                    88229.2      151250       75625

 PW_GRID| Information for grid number                                          3
 PW_GRID| Grid distributed over                                   144 processors
 PW_GRID| Real space group dimensions                                    12   12
 PW_GRID| the grid is blocked:                                                NO
 PW_GRID| Cutoff [a.u.]                                                     27.8
 PW_GRID| spherical cutoff:                                                   NO
 PW_GRID|   Bounds   1            -48      47                Points:          96
 PW_GRID|   Bounds   2            -80      79                Points:         160
 PW_GRID|   Bounds   3            -80      79                Points:         160
 PW_GRID| Volume element (a.u.^3)  0.7193E-01     Volume (a.u.^3)    176783.5904
 PW_GRID| Grid span                                                    FULLSPACE
 PW_GRID|   Distribution                         Average         Max         Min
 PW_GRID|   G-Vectors                            17066.7       17280       16896
 PW_GRID|   G-Rays                                 177.8         180         176
 PW_GRID|   Real Space Points                    17066.7       17920       16640

 PW_GRID| Information for grid number                                          4
 PW_GRID| Grid distributed over                                   144 processors
 PW_GRID| Real space group dimensions                                    12   12
 PW_GRID| the grid is blocked:                                                NO
 PW_GRID| Cutoff [a.u.]                                                      9.3
 PW_GRID| spherical cutoff:                                                   NO
 PW_GRID|   Bounds   1            -27      27                Points:          55
 PW_GRID|   Bounds   2            -48      47                Points:          96
 PW_GRID|   Bounds   3            -48      47                Points:          96
 PW_GRID| Volume element (a.u.^3)  0.3488         Volume (a.u.^3)    176783.5904
 PW_GRID| Grid span                                                    FULLSPACE
 PW_GRID|   Distribution                         Average         Max         Min
 PW_GRID|   G-Vectors                             3520.0        3575        3465
 PW_GRID|   G-Rays                                  64.0          65          63
 PW_GRID|   Real Space Points                     3520.0        3840        3072

 PW_GRID| Information for grid number                                          5
 PW_GRID| Grid distributed over                                   144 processors
 PW_GRID| Real space group dimensions                                    12   12
 PW_GRID| the grid is blocked:                                                NO
 PW_GRID| Cutoff [a.u.]                                                      3.1
 PW_GRID| spherical cutoff:                                                   NO
 PW_GRID|   Bounds   1            -16      15                Points:          32
 PW_GRID|   Bounds   2            -27      26                Points:          54
 PW_GRID|   Bounds   3            -27      26                Points:          54
 PW_GRID| Volume element (a.u.^3)   1.895         Volume (a.u.^3)    176783.5904
 PW_GRID| Grid span                                                    FULLSPACE
 PW_GRID|   Distribution                         Average         Max         Min
 PW_GRID|   G-Vectors                              648.0         704         608
 PW_GRID|   G-Rays                                  20.2          22          19
 PW_GRID|   Real Space Points                      648.0         810         432

 POISSON| Solver                                                        PERIODIC
 POISSON| Periodicity                                                        XYZ

 RS_GRID| Information for grid number                                          1
 RS_GRID|   Bounds   1           -144     143                Points:         288
 RS_GRID|   Bounds   2           -240     239                Points:         480
 RS_GRID|   Bounds   3           -240     239                Points:         480
 RS_GRID| Real space distribution over                                  4 groups
 RS_GRID| Real space distribution along direction                              1
 RS_GRID| Border size                                                         26
 RS_GRID| Real space distribution over                                  6 groups
 RS_GRID| Real space distribution along direction                              2
 RS_GRID| Border size                                                         26
 RS_GRID| Real space distribution over                                  6 groups
 RS_GRID| Real space distribution along direction                              3
 RS_GRID| Border size                                                         26
 RS_GRID|   Distribution                         Average         Max         Min
 RS_GRID|   Planes                                 124.0         124         124
 RS_GRID|   Distribution                         Average         Max         Min
 RS_GRID|   Planes                                 132.0         132         132
 RS_GRID|   Distribution                         Average         Max         Min
 RS_GRID|   Planes                                 132.0         132         132

 RS_GRID| Information for grid number                                          2
 RS_GRID|   Bounds   1            -84      83                Points:         168
 RS_GRID|   Bounds   2           -137     137                Points:         275
 RS_GRID|   Bounds   3           -137     137                Points:         275
 RS_GRID| Real space distribution over                                  4 groups
 RS_GRID| Real space distribution along direction                              1
 RS_GRID| Border size                                                         27
 RS_GRID| Real space distribution over                                  6 groups
 RS_GRID| Real space distribution along direction                              2
 RS_GRID| Border size                                                         27
 RS_GRID| Real space distribution over                                  6 groups
 RS_GRID| Real space distribution along direction                              3
 RS_GRID| Border size                                                         27
 RS_GRID|   Distribution                         Average         Max         Min
 RS_GRID|   Planes                                  96.0          96          96
 RS_GRID|   Distribution                         Average         Max         Min
 RS_GRID|   Planes                                  99.8         100          99
 RS_GRID|   Distribution                         Average         Max         Min
 RS_GRID|   Planes                                  99.8         100          99

 RS_GRID| Information for grid number                                          3
 RS_GRID|   Bounds   1            -48      47                Points:          96
 RS_GRID|   Bounds   2            -80      79                Points:         160
 RS_GRID|   Bounds   3            -80      79                Points:         160
 RS_GRID| Real space fully replicated
 RS_GRID| Group size                                                           1

 RS_GRID| Information for grid number                                          4
 RS_GRID|   Bounds   1            -27      27                Points:          55
 RS_GRID|   Bounds   2            -48      47                Points:          96
 RS_GRID|   Bounds   3            -48      47                Points:          96
 RS_GRID| Real space fully replicated
 RS_GRID| Group size                                                           1

 RS_GRID| Information for grid number                                          5
 RS_GRID|   Bounds   1            -16      15                Points:          32
 RS_GRID|   Bounds   2            -27      26                Points:          54
 RS_GRID|   Bounds   3            -27      26                Points:          54
 RS_GRID| Real space fully replicated
 RS_GRID| Group size                                                           1

 DISTRIBUTION OF THE PARTICLES (ROWS)
              Process row      Number of particles         Number of matrix rows
                        0                        7                            -1
                        1                        7                            -1
                        2                        6                            -1
                        3                        7                            -1
                        4                        7                            -1
                        5                        6                            -1
                        6                        7                            -1
                        7                        7                            -1
                        8                        4                            -1
                        9                        7                            -1
                       10                        6                            -1
                       11                        6                            -1
                      Sum                       77                            -1

 DISTRIBUTION OF THE PARTICLES (COLUMNS)
              Process col      Number of particles      Number of matrix columns
                        0                        7                            -1
                        1                        7                            -1
                        2                        6                            -1
                        3                        7                            -1
                        4                        7                            -1
                        5                        6                            -1
                        6                        7                            -1
                        7                        7                            -1
                        8                        4                            -1
                        9                        7                            -1
                       10                        6                            -1
                       11                        6                            -1
                      Sum                       77                            -1

  HFX_INFO| Replica ID:                                                        1
  HFX_INFO| EPS_SCHWARZ:                                                 1.0E-10
  HFX_INFO| EPS_SCHWARZ_FORCES                                           1.0E-06
  HFX_INFO| EPS_STORAGE_SCALING:                                         1.0E+00
  HFX_INFO| NBINS:                                                            64
  HFX_INFO| BLOCK_SIZE:                                                        1
  HFX_INFO| FRACTION:                                               1.0000000000
  HFX_INFO| Interaction Potential:                                     TRUNCATED
  HFX_INFO| Cutoff Radius [angstrom]:                              10.6711000000
  HFX_INFO| NUMBER_OF_SHELLS:                                               AUTO
  HFX_INFO| Number of periodic shells considered:                             -1
  HFX_INFO| Number of periodic cells considered:                              27


 DISTRIBUTION OF THE NEIGHBOR LISTS
              Total number of particle pairs:                               4179
              Total number of matrix elements:                            134022
              Average number of particle pairs:                               30
              Maximum number of particle pairs:                               47
              Average number of matrix element:                              931
              Maximum number of matrix elements:                            1834


 DISTRIBUTION OF THE OVERLAP MATRIX
              Number  of non-zero blocks:                                   3003
              Percentage non-zero blocks:                                 100.00
              Average number of blocks per CPU:                               21
              Maximum number of blocks per CPU:                               32
              Average number of matrix elements per CPU:                     701
              Maximum number of matrix elements per CPU:                    1063

 Spin 1

 Number of electrons:                                                        175
 Number of occupied orbitals:                                                175
 Number of molecular orbitals:                                               175

 Spin 2

 Number of electrons:                                                        141
 Number of occupied orbitals:                                                141
 Number of molecular orbitals:                                               141

 Number of orbital functions:                                                441
 Number of independent orbital functions:                                    441

 Extrapolation method: initial_guess


 SCF WAVEFUNCTION OPTIMIZATION

  ----------------------------------- OT ---------------------------------------
  Minimizer      : CG                  : conjugate gradient
  Preconditioner : FULL_KINETIC        : inversion of T + eS
  Precond_solver : DEFAULT
  Line search    : 2PNT                : 2 energies, one gradient
  stepsize       :    0.15000000                  energy_gap     :    0.20000000
  eps_taylor     :   0.10000E-15                  max_taylor     :             4
  ----------------------------------- OT ---------------------------------------

  Step     Update method      Time    Convergence         Total energy    Change
  ------------------------------------------------------------------------------

  HFX_MEM_INFO| Est. max. program size before HFX [MiB]:                     287
  HFX_MEM_INFO| Number of cart. primitive ERI's calculated:          75153206492
  HFX_MEM_INFO| Number of sph. ERI's calculated:                      4839162714
  HFX_MEM_INFO| Number of sph. ERI's stored in-core:                  4839162714
  HFX_MEM_INFO| Number of sph. ERI's stored on disk:                           0
  HFX_MEM_INFO| Number of sph. ERI's calculated on the fly:                    0
  HFX_MEM_INFO| Total memory consumption ERI's RAM [MiB]:                  12391
  HFX_MEM_INFO| Whereof max-vals [MiB]:                                        4
  HFX_MEM_INFO| Total compression factor ERI's RAM:                         2.98
  HFX_MEM_INFO| Total memory consumption ERI's disk [MiB]:                     0
  HFX_MEM_INFO| Total compression factor ERI's disk:                        0.00
  HFX_MEM_INFO| Size of density/Fock matrix [MiB]:                             0
  HFX_MEM_INFO| Size of buffers [MiB]:                                         1
  HFX_MEM_INFO| Number of periodic image cells considered:                    27
  HFX_MEM_INFO| Est. max. program size after HFX  [MiB]:                     382

     1 OT CG       0.15E+00   48.8     0.00034094     -1322.6463081373 -1.32E+03
     2 OT LS       0.60E+00    0.9                    -1322.6485305630
     3 OT CG       0.60E+00    1.3     0.00017558     -1322.6527089541 -6.40E-03
     4 OT LS       0.60E+00    0.9                    -1322.6539948760
     5 OT CG       0.60E+00    1.3     0.00019179     -1322.6539948835 -1.29E-03
     6 OT LS       0.37E+00    0.9                    -1322.6546105891
     7 OT CG       0.37E+00    1.3     0.00012787     -1322.6549544253 -9.60E-04
     8 OT LS       0.27E+00    0.8                    -1322.6552060941
     9 OT CG       0.27E+00    1.4     0.00008069     -1322.6552569263 -3.03E-04
    10 OT LS       0.30E+00    0.8                    -1322.6553912313
    11 OT CG       0.30E+00    1.3     0.00006167     -1322.6553930251 -1.36E-04
    12 OT LS       0.44E+00    0.8                    -1322.6554976810
    13 OT CG       0.44E+00    1.4     0.00006098     -1322.6555093078 -1.16E-04
    14 OT LS       0.30E+00    0.8                    -1322.6555688152
    15 OT CG       0.30E+00    1.3     0.00004334     -1322.6555862968 -7.70E-05
    16 OT LS       0.28E+00    0.8                    -1322.6556233686
    17 OT CG       0.28E+00    1.7     0.00003207     -1322.6556234505 -3.72E-05
    18 OT LS       0.41E+00    1.0                    -1322.6556499691
    19 OT CG       0.41E+00    1.3     0.00003427     -1322.6556526617 -2.92E-05
    20 OT LS       0.40E+00    0.9                    -1322.6556857012
    21 OT CG       0.40E+00    1.3     0.00003150     -1322.6556857040 -3.30E-05
    22 OT LS       0.37E+00    0.9                    -1322.6557106738
    23 OT CG       0.37E+00    1.3     0.00002341     -1322.6557109571 -2.53E-05
    24 OT LS       0.33E+00    0.9                    -1322.6557236122
    25 OT CG       0.33E+00    1.5     0.00001891     -1322.6557237214 -1.28E-05
    26 OT LS       0.38E+00    0.8                    -1322.6557330464
    27 OT CG       0.38E+00    1.3     0.00001745     -1322.6557331814 -9.46E-06
    28 OT LS       0.38E+00    0.8                    -1322.6557412672
    29 OT CG       0.38E+00    1.3     0.00001394     -1322.6557412673 -8.09E-06
    30 OT LS       0.32E+00    0.8                    -1322.6557454038
    31 OT CG       0.32E+00    1.4     0.00000950     -1322.6557455728 -4.31E-06
    32 OT LS       0.31E+00    0.8                    -1322.6557475224
    33 OT CG       0.31E+00    1.4     0.00000769     -1322.6557475236 -1.95E-06
    34 OT LS       0.32E+00    0.9                    -1322.6557488343
    35 OT CG       0.32E+00    1.4     0.00000645     -1322.6557488352 -1.31E-06
    36 OT LS       0.36E+00    0.8                    -1322.6557498703
    37 OT CG       0.36E+00    1.4     0.00000560     -1322.6557498856 -1.05E-06
    38 OT LS       0.35E+00    0.9                    -1322.6557506616
    39 OT CG       0.35E+00    1.3     0.00000492     -1322.6557506620 -7.76E-07
    40 OT LS       0.40E+00    0.8                    -1322.6557513270
    41 OT CG       0.40E+00    1.3     0.00000489     -1322.6557513350 -6.73E-07
    42 OT LS       0.50E+00    0.8                    -1322.6557521352
    43 OT CG       0.50E+00    1.4     0.00000542     -1322.6557521707 -8.36E-07
    44 OT LS       0.45E+00    0.9                    -1322.6557530842
    45 OT CG       0.45E+00    1.6     0.00000547     -1322.6557530954 -9.25E-07
    46 OT LS       0.37E+00    0.8                    -1322.6557538223
    47 OT CG       0.37E+00    1.4     0.00000511     -1322.6557538626 -7.67E-07
    48 OT LS       0.37E+00    0.8                    -1322.6557545333
    49 OT CG       0.37E+00    1.3     0.00000459     -1322.6557545333 -6.71E-07
    50 OT LS       0.52E+00    0.8                    -1322.6557552319
    51 OT CG       0.52E+00    1.3     0.00000492     -1322.6557552950 -7.62E-07
    52 OT LS       0.43E+00    0.9                    -1322.6557559895
    53 OT CG       0.43E+00    1.3     0.00000521     -1322.6557560200 -7.25E-07
    54 OT LS       0.38E+00    0.8                    -1322.6557567386
    55 OT CG       0.38E+00    1.3     0.00000580     -1322.6557567485 -7.29E-07
    56 OT LS       0.51E+00    0.9                    -1322.6557578758
    57 OT CG       0.51E+00    1.3     0.00000704     -1322.6557579505 -1.20E-06
    58 OT LS       0.61E+00    0.8                    -1322.6557599910
    59 OT CG       0.61E+00    1.4     0.00000848     -1322.6557600400 -2.09E-06
    60 OT LS       0.52E+00    0.8                    -1322.6557625799
    61 OT CG       0.52E+00    1.4     0.00000861     -1322.6557626497 -2.61E-06
    62 OT LS       0.43E+00    0.9                    -1322.6557648064
    63 OT CG       0.43E+00    1.3     0.00000841     -1322.6557648934 -2.24E-06
    64 OT LS       0.41E+00    0.9                    -1322.6557669256
    65 OT CG       0.41E+00    1.4     0.00000807     -1322.6557669311 -2.04E-06
    66 OT LS       0.37E+00    0.8                    -1322.6557686131
    67 OT CG       0.37E+00    1.4     0.00000705     -1322.6557686314 -1.70E-06
    68 OT LS       0.33E+00    0.8                    -1322.6557697749
    69 OT CG       0.33E+00    1.3     0.00000577     -1322.6557697911 -1.16E-06
    70 OT LS       0.36E+00    0.8                    -1322.6557706208
    71 OT CG       0.36E+00    1.6     0.00000529     -1322.6557706244 -8.33E-07
    72 OT LS       0.34E+00    1.0                    -1322.6557712942
    73 OT CG       0.34E+00    1.3     0.00000477     -1322.6557712954 -6.71E-07
    74 OT LS       0.40E+00    0.9                    -1322.6557719144
    75 OT CG       0.40E+00    1.3     0.00000409     -1322.6557719259 -6.30E-07
    76 OT LS       0.33E+00    0.8                    -1322.6557722917
    77 OT CG       0.33E+00    1.3     0.00000330     -1322.6557723088 -3.83E-07
    78 OT LS       0.37E+00    0.8                    -1322.6557725849
    79 OT CG       0.37E+00    1.4     0.00000280     -1322.6557725883 -2.79E-07
    80 OT LS       0.34E+00    0.9                    -1322.6557727757
    81 OT CG       0.34E+00    1.3     0.00000229     -1322.6557727767 -1.88E-07
    82 OT LS       0.34E+00    0.8                    -1322.6557728989
    83 OT CG       0.34E+00    1.4     0.00000167     -1322.6557728990 -1.22E-07
    84 OT LS       0.38E+00    0.8                    -1322.6557729727
    85 OT CG       0.38E+00    1.4     0.00000132     -1322.6557729738 -7.48E-08
    86 OT LS       0.36E+00    0.8                    -1322.6557730174
    87 OT CG       0.36E+00    1.4     0.00000118     -1322.6557730176 -4.38E-08
    88 OT LS       0.32E+00    0.8                    -1322.6557730483
    89 OT CG       0.32E+00    1.4     0.00000096     -1322.6557730487 -3.11E-08

  *** SCF run converged in    89 steps ***


  Electronic density on regular grids:       -315.9999999998        0.0000000002
  Core density on regular grids:              321.9999999999       -0.0000000001
  Total charge density on r-space grids:        6.0000000001
  Total charge density g-space grids:           6.0000000001

  Overlap energy of the core charge distribution:               0.00000109687541
  Self energy of the core charge distribution:              -2631.59580429473499
  Core Hamiltonian energy:                                    746.78589972326245
  Hartree energy:                                             754.58671152894476
  Exchange-correlation energy:                                  0.00000000000000
  Hartree-Fock Exchange energy:                              -192.43258110303142

  Total energy:                                             -1322.65577304868339

  outer SCF iter =    1 RMS gradient =   0.96E-06 energy =      -1322.6557730487
  outer SCF loop converged in   1 iterations or   89 steps


  Integrated absolute spin density  :                              34.3025911956
  Ideal and single determinant S**2 :                  306.000000     306.047606

 !-----------------------------------------------------------------------------!
                     Mulliken Population Analysis

 #  Atom  Element  Kind  Atomic population (alpha,beta) Net charge  Spin moment
       1     Fe       1         9.416268     4.676710     1.907022     4.739558
       2     Fe       1         9.416429     4.677142     1.906429     4.739288
       3     Fe       1         9.419618     4.684603     1.895779     4.735015
       4     Fe       1         9.428204     4.699518     1.872278     4.728685
       5     Fe       1         9.162250     5.227581     1.610169     3.934670
       6     Fe       1         9.426683     4.704672     1.868645     4.722012
       7     Fe       1         9.418552     4.682342     1.899106     4.736210
       8     O        2         3.310512     3.288392    -0.598904     0.022120
       9     O        2         3.310502     3.288384    -0.598886     0.022117
      10     O        2         3.509087     3.408394    -0.917481     0.100693
      11     O        2         3.509086     3.408394    -0.917480     0.100693
      12     O        2         3.310534     3.288382    -0.598916     0.022152
      13     O        2         3.310522     3.288373    -0.598895     0.022150
      14     O        2         3.509066     3.407815    -0.916881     0.101251
      15     O        2         3.509066     3.407815    -0.916880     0.101251
      16     O        2         3.310567     3.288717    -0.599284     0.021851
      17     O        2         3.310553     3.288706    -0.599259     0.021847
      18     O        2         3.509011     3.408173    -0.917184     0.100837
      19     O        2         3.509010     3.408173    -0.917183     0.100838
      20     O        2         3.310593     3.291513    -0.602106     0.019080
      21     O        2         3.310580     3.291507    -0.602087     0.019074
      22     O        2         3.508908     3.409389    -0.918297     0.099520
      23     O        2         3.508908     3.409388    -0.918296     0.099520
      24     O        2         3.314188     3.311612    -0.625801     0.002576
      25     O        2         3.314181     3.311605    -0.625785     0.002576
      26     O        2         3.516611     3.427777    -0.944388     0.088835
      27     O        2         3.516612     3.427777    -0.944389     0.088835
      28     O        2         3.310557     3.290923    -0.601480     0.019634
      29     O        2         3.310542     3.290907    -0.601449     0.019636
      30     O        2         3.517017     3.427154    -0.944171     0.089863
      31     O        2         3.517016     3.427155    -0.944171     0.089861
      32     O        2         3.310322     3.288535    -0.598857     0.021787
      33     O        2         3.310318     3.288534    -0.598852     0.021784
      34     O        2         3.508957     3.409213    -0.918171     0.099744
      35     O        2         3.508957     3.409213    -0.918170     0.099744
      36     H        3         0.323360     0.322795     0.353845     0.000565
      37     H        3         0.323361     0.322797     0.353842     0.000565
      38     H        3         0.323355     0.322790     0.353855     0.000564
      39     H        3         0.323353     0.322789     0.353858     0.000564
      40     H        3         0.329554     0.326948     0.343498     0.002606
      41     H        3         0.329554     0.326948     0.343498     0.002606
      42     H        3         0.323358     0.322817     0.353824     0.000541
      43     H        3         0.323360     0.322819     0.353821     0.000541
      44     H        3         0.323353     0.322812     0.353835     0.000541
      45     H        3         0.323351     0.322810     0.353839     0.000541
      46     H        3         0.329186     0.326602     0.344211     0.002584
      47     H        3         0.329186     0.326602     0.344212     0.002584
      48     H        3         0.324069     0.323702     0.352230     0.000367
      49     H        3         0.324074     0.323710     0.352215     0.000364
      50     H        3         0.324065     0.323701     0.352233     0.000364
      51     H        3         0.324060     0.323693     0.352247     0.000367
      52     H        3         0.329542     0.326949     0.343509     0.002594
      53     H        3         0.329543     0.326949     0.343509     0.002594
      54     H        3         0.326897     0.326685     0.346418     0.000212
      55     H        3         0.326877     0.326659     0.346464     0.000219
      56     H        3         0.326869     0.326650     0.346481     0.000218
      57     H        3         0.326887     0.326675     0.346438     0.000212
      58     H        3         0.330845     0.328123     0.341032     0.002722
      59     H        3         0.330845     0.328123     0.341032     0.002722
      60     H        3         0.335312     0.334715     0.329973     0.000597
      61     H        3         0.335351     0.334756     0.329893     0.000595
      62     H        3         0.335348     0.334753     0.329898     0.000595
      63     H        3         0.335309     0.334712     0.329980     0.000597
      64     H        3         0.340468     0.338988     0.320543     0.001480
      65     H        3         0.340467     0.338988     0.320544     0.001479
      66     H        3         0.326837     0.326585     0.346579     0.000252
      67     H        3         0.326842     0.326588     0.346570     0.000254
      68     H        3         0.326836     0.326582     0.346581     0.000254
      69     H        3         0.326832     0.326580     0.346589     0.000252
      70     H        3         0.340911     0.339104     0.319985     0.001807
      71     H        3         0.340912     0.339104     0.319984     0.001808
      72     H        3         0.324177     0.323752     0.352071     0.000425
      73     H        3         0.324181     0.323756     0.352063     0.000425
      74     H        3         0.324178     0.323753     0.352069     0.000424
      75     H        3         0.324173     0.323749     0.352078     0.000425
      76     H        3         0.331585     0.328950     0.339465     0.002636
      77     H        3         0.331586     0.328950     0.339464     0.002636
 # Total charge and spin      175.000000   141.000000     6.000000    34.000000

 !-----------------------------------------------------------------------------!

 !-----------------------------------------------------------------------------!
                           Hirshfeld Charges

  #Atom  Element  Kind  Ref Charge     Population       Spin moment  Net charge
      1       Fe     1      16.000   10.755   6.028            4.727     -0.783
      2       Fe     1      16.000   10.756   6.029            4.727     -0.785
      3       Fe     1      16.000   10.763   6.040            4.723     -0.803
      4       Fe     1      16.000   10.740   6.023            4.717     -0.762
      5       Fe     1      16.000   10.359   6.461            3.898     -0.819
      6       Fe     1      16.000   10.765   6.055            4.710     -0.819
      7       Fe     1      16.000   10.762   6.038            4.724     -0.800
      8       O      2       6.000    3.366   3.339            0.027     -0.705
      9       O      2       6.000    3.366   3.339            0.027     -0.705
     10       O      2       6.000    3.158   3.055            0.103     -0.213
     11       O      2       6.000    3.158   3.055            0.103     -0.213
     12       O      2       6.000    3.366   3.339            0.027     -0.705
     13       O      2       6.000    3.366   3.339            0.027     -0.705
     14       O      2       6.000    3.157   3.054            0.103     -0.212
     15       O      2       6.000    3.157   3.054            0.103     -0.212
     16       O      2       6.000    3.369   3.342            0.026     -0.711
     17       O      2       6.000    3.369   3.342            0.026     -0.711
     18       O      2       6.000    3.158   3.055            0.103     -0.214
     19       O      2       6.000    3.158   3.055            0.103     -0.214
     20       O      2       6.000    3.379   3.355            0.024     -0.734
     21       O      2       6.000    3.379   3.355            0.024     -0.734
     22       O      2       6.000    3.162   3.060            0.102     -0.223
     23       O      2       6.000    3.162   3.060            0.102     -0.223
     24       O      2       6.000    3.408   3.396            0.012     -0.803
     25       O      2       6.000    3.408   3.396            0.012     -0.803
     26       O      2       6.000    3.176   3.084            0.092     -0.260
     27       O      2       6.000    3.176   3.084            0.092     -0.260
     28       O      2       6.000    3.375   3.351            0.024     -0.726
     29       O      2       6.000    3.375   3.351            0.024     -0.726
     30       O      2       6.000    3.174   3.082            0.093     -0.256
     31       O      2       6.000    3.174   3.082            0.093     -0.256
     32       O      2       6.000    3.368   3.342            0.026     -0.710
     33       O      2       6.000    3.368   3.342            0.026     -0.710
     34       O      2       6.000    3.161   3.059            0.102     -0.220
     35       O      2       6.000    3.161   3.059            0.102     -0.220
     36       H      3       1.000    0.201   0.200            0.000      0.599
     37       H      3       1.000    0.201   0.200            0.000      0.599
     38       H      3       1.000    0.201   0.200            0.000      0.599
     39       H      3       1.000    0.201   0.200            0.000      0.599
     40       H      3       1.000    0.204   0.201            0.003      0.594
     41       H      3       1.000    0.204   0.201            0.003      0.594
     42       H      3       1.000    0.201   0.200            0.000      0.599
     43       H      3       1.000    0.201   0.200            0.000      0.599
     44       H      3       1.000    0.201   0.200            0.000      0.599
     45       H      3       1.000    0.201   0.200            0.000      0.599
     46       H      3       1.000    0.204   0.201            0.003      0.595
     47       H      3       1.000    0.204   0.201            0.003      0.595
     48       H      3       1.000    0.201   0.201            0.000      0.598
     49       H      3       1.000    0.201   0.201            0.000      0.598
     50       H      3       1.000    0.201   0.201            0.000      0.598
     51       H      3       1.000    0.201   0.201            0.000      0.598
     52       H      3       1.000    0.204   0.202            0.003      0.594
     53       H      3       1.000    0.204   0.202            0.003      0.594
     54       H      3       1.000    0.202   0.202            0.000      0.596
     55       H      3       1.000    0.202   0.202            0.000      0.596
     56       H      3       1.000    0.202   0.202            0.000      0.596
     57       H      3       1.000    0.202   0.202            0.000      0.596
     58       H      3       1.000    0.205   0.202            0.003      0.593
     59       H      3       1.000    0.205   0.202            0.003      0.593
     60       H      3       1.000    0.206   0.206            0.000      0.588
     61       H      3       1.000    0.206   0.206            0.000      0.588
     62       H      3       1.000    0.206   0.206            0.000      0.588
     63       H      3       1.000    0.206   0.206            0.000      0.588
     64       H      3       1.000    0.209   0.207            0.002      0.584
     65       H      3       1.000    0.209   0.207            0.002      0.584
     66       H      3       1.000    0.202   0.202            0.000      0.596
     67       H      3       1.000    0.202   0.202            0.000      0.596
     68       H      3       1.000    0.202   0.202            0.000      0.596
     69       H      3       1.000    0.202   0.202            0.000      0.596
     70       H      3       1.000    0.209   0.207            0.002      0.584
     71       H      3       1.000    0.209   0.207            0.002      0.584
     72       H      3       1.000    0.201   0.201            0.000      0.598
     73       H      3       1.000    0.201   0.201            0.000      0.598
     74       H      3       1.000    0.201   0.201            0.000      0.598
     75       H      3       1.000    0.201   0.201            0.000      0.598
     76       H      3       1.000    0.205   0.202            0.003      0.592
     77       H      3       1.000    0.205   0.202            0.003      0.592

[...]
 flops     8 x     2 x    13             22014720     100.0%      0.0%      0.0%
 flops     2 x     8 x    13             22014720     100.0%      0.0%      0.0%
 flops    15 x    15 x    32             22320000     100.0%      0.0%      0.0%
 flops    15 x    32 x    15             22320000     100.0%      0.0%      0.0%
 flops    32 x    15 x    15             22320000     100.0%      0.0%      0.0%
 flops    19 x    19 x    13             23652720     100.0%      0.0%      0.0%
 flops    36 x    13 x    36             24800256     100.0%      0.0%      0.0%
 flops     2 x    13 x     2             25316928     100.0%      0.0%      0.0%
 flops     8 x     2 x    15             25401600     100.0%      0.0%      0.0%
 flops     2 x     8 x    15             25401600     100.0%      0.0%      0.0%
 flops    15 x    15 x    37             25990650     100.0%      0.0%      0.0%
 flops    37 x    13 x    13             27225562     100.0%      0.0%      0.0%
 flops    19 x    19 x    15             27291600     100.0%      0.0%      0.0%
 flops    13 x    32 x    38             28201472     100.0%      0.0%      0.0%
 flops    32 x    13 x    38             28201472     100.0%      0.0%      0.0%
 flops    36 x    15 x    36             28615680     100.0%      0.0%      0.0%
 flops     2 x    15 x     2             29000160     100.0%      0.0%      0.0%
 flops     8 x    19 x    13             34856640     100.0%      0.0%      0.0%
 flops    19 x     8 x    13             34856640     100.0%      0.0%      0.0%
 flops    37 x    15 x    15             36247050     100.0%      0.0%      0.0%
 flops    38 x    32 x    38             38260224     100.0%      0.0%      0.0%
 flops    38 x    13 x    32             39330304     100.0%      0.0%      0.0%
 flops    38 x    32 x    13             39330304     100.0%      0.0%      0.0%
 flops     2 x    13 x    19             40085136     100.0%      0.0%      0.0%
 flops    19 x    13 x     2             40085136     100.0%      0.0%      0.0%
 flops     8 x    19 x    15             40219200     100.0%      0.0%      0.0%
 flops    19 x     8 x    15             40219200     100.0%      0.0%      0.0%
 flops    15 x    32 x    38             40675200     100.0%      0.0%      0.0%
 flops    32 x    15 x    38             40675200     100.0%      0.0%      0.0%
 flops    36 x    13 x    37             44606016     100.0%      0.0%      0.0%
 flops    37 x    13 x    36             44606016     100.0%      0.0%      0.0%
 flops     2 x    15 x    19             45916920     100.0%      0.0%      0.0%
 flops    19 x    15 x     2             45916920     100.0%      0.0%      0.0%
 flops    36 x    15 x    37             51468480     100.0%      0.0%      0.0%
 flops    37 x    15 x    36             51468480     100.0%      0.0%      0.0%
 flops    38 x    15 x    32             56726400     100.0%      0.0%      0.0%
 flops    38 x    32 x    15             56726400     100.0%      0.0%      0.0%
 flops     8 x     8 x    13             60802560     100.0%      0.0%      0.0%
 flops    19 x    13 x    19             63468132     100.0%      0.0%      0.0%
 flops     2 x    13 x     8             67511808     100.0%      0.0%      0.0%
 flops     8 x    13 x     2             67511808     100.0%      0.0%      0.0%
 flops     8 x     8 x    15             70156800     100.0%      0.0%      0.0%
 flops    19 x    15 x    19             72701790     100.0%      0.0%      0.0%
 flops     2 x    15 x     8             77333760     100.0%      0.0%      0.0%
 flops     8 x    15 x     2             77333760     100.0%      0.0%      0.0%
 flops    37 x    13 x    37             80228876     100.0%      0.0%      0.0%
 flops    37 x    15 x    37             92571780     100.0%      0.0%      0.0%
 flops    13 x    32 x    36            106868736     100.0%      0.0%      0.0%
 flops    32 x    13 x    36            106868736     100.0%      0.0%      0.0%
 flops     8 x    13 x    19            106893696     100.0%      0.0%      0.0%
 flops    19 x    13 x     8            106893696     100.0%      0.0%      0.0%
 flops     8 x    15 x    19            122445120     100.0%      0.0%      0.0%
 flops    19 x    15 x     8            122445120     100.0%      0.0%      0.0%
 flops    32 x    32 x    13            132055040     100.0%      0.0%      0.0%
 flops    13 x    32 x    32            132055040     100.0%      0.0%      0.0%
 flops    32 x    13 x    32            132055040     100.0%      0.0%      0.0%
 flops    36 x    32 x    38            144986112     100.0%      0.0%      0.0%
 flops    38 x    32 x    36            144986112     100.0%      0.0%      0.0%
 flops    36 x    13 x    32            149041152     100.0%      0.0%      0.0%
 flops    36 x    32 x    13            149041152     100.0%      0.0%      0.0%
 flops    15 x    32 x    36            154137600     100.0%      0.0%      0.0%
 flops    32 x    15 x    36            154137600     100.0%      0.0%      0.0%
 flops     8 x    13 x     8            180031488     100.0%      0.0%      0.0%
 flops     2 x     2 x    32            187246080     100.0%      0.0%      0.0%
 flops    13 x    32 x    37            192215296     100.0%      0.0%      0.0%
 flops    32 x    13 x    37            192215296     100.0%      0.0%      0.0%
 flops     8 x    15 x     8            206223360     100.0%      0.0%      0.0%
 flops    36 x    15 x    32            214963200     100.0%      0.0%      0.0%
 flops    36 x    32 x    15            214963200     100.0%      0.0%      0.0%
 flops    32 x    32 x    15            238080000     100.0%      0.0%      0.0%
 flops    15 x    32 x    32            238080000     100.0%      0.0%      0.0%
 flops    32 x    15 x    32            238080000     100.0%      0.0%      0.0%
 flops    37 x    32 x    38            260773632     100.0%      0.0%      0.0%
 flops    38 x    32 x    37            260773632     100.0%      0.0%      0.0%
 flops    37 x    32 x    13            268067072     100.0%      0.0%      0.0%
 flops    37 x    13 x    32            268067072     100.0%      0.0%      0.0%
 flops    15 x    32 x    37            277233600     100.0%      0.0%      0.0%
 flops    32 x    15 x    37            277233600     100.0%      0.0%      0.0%
 flops    19 x     2 x    32            289578240     100.0%      0.0%      0.0%
 flops     2 x    19 x    32            289578240     100.0%      0.0%      0.0%
 flops    37 x    32 x    15            386635200     100.0%      0.0%      0.0%
 flops    37 x    15 x    32            386635200     100.0%      0.0%      0.0%
 flops     8 x     2 x    32            487710720     100.0%      0.0%      0.0%
 flops     2 x     8 x    32            487710720     100.0%      0.0%      0.0%
 flops    19 x    19 x    32            523998720     100.0%      0.0%      0.0%
 flops    36 x    32 x    36            549421056     100.0%      0.0%      0.0%
 flops     2 x    32 x     2            558609408     100.0%      0.0%      0.0%
 flops    32 x    32 x    38            711544832     100.0%      0.0%      0.0%
 flops     8 x    19 x    32            772208640     100.0%      0.0%      0.0%
 flops    19 x     8 x    32            772208640     100.0%      0.0%      0.0%
 flops    19 x    32 x     2            884464896     100.0%      0.0%      0.0%
 flops     2 x    32 x    19            884464896     100.0%      0.0%      0.0%
 flops    37 x    32 x    36            988194816     100.0%      0.0%      0.0%
 flops    36 x    32 x    37            988194816     100.0%      0.0%      0.0%
 flops    38 x    32 x    32            992333824     100.0%      0.0%      0.0%
 flops     8 x     8 x    32           1347010560     100.0%      0.0%      0.0%
 flops    19 x    32 x    19           1400402752     100.0%      0.0%      0.0%
 flops     8 x    32 x     2           1489625088     100.0%      0.0%      0.0%
 flops     2 x    32 x     8           1489625088     100.0%      0.0%      0.0%
 flops    37 x    32 x    37           1777378176     100.0%      0.0%      0.0%
 flops    19 x    32 x     8           2358573056     100.0%      0.0%      0.0%
 flops     8 x    32 x    19           2358573056     100.0%      0.0%      0.0%
 flops    32 x    32 x    36           2696380416     100.0%      0.0%      0.0%
 flops    36 x    32 x    32           3760422912     100.0%      0.0%      0.0%
 flops    32 x    32 x    32           3839754240     100.0%      0.0%      0.0%
 flops     8 x    32 x     8           3972333568     100.0%      0.0%      0.0%
 flops    32 x    32 x    37           4849739776     100.0%      0.0%      0.0%
 flops    37 x    32 x    32           6763538432     100.0%      0.0%      0.0%
 flops inhomo. stacks                           0       0.0%      0.0%      0.0%
 flops total                        57.063394E+09     100.0%      0.0%      0.0%
 flops max/rank                      1.272513E+09     100.0%      0.0%      0.0%
 matmuls inhomo. stacks                         0       0.0%      0.0%      0.0%
 matmuls total                           12507927     100.0%      0.0%      0.0%
 number of processed stacks               2840575     100.0%      0.0%      0.0%
 average stack size                                     4.4       0.0       0.0
 marketing flops                    62.547780E+09
 -------------------------------------------------------------------------------
 # multiplications                           2239
 max memory usage/rank             445.730816E+06
 # max total images/rank                        1
 # max 3D layers                                1
 # MPI messages exchanged                 7093152
 MPI messages size (bytes):
  total size                        24.172274E+09
  min size                           0.000000E+00
  max size                          11.552000E+03
  average size                       3.407833E+03
 MPI breakdown and total messages size (bytes):
             size <=      128             4258650                        0
       128 < size <=     8192              920898               5357311256
      8192 < size <=    32768             1913604              18815010984
     32768 < size <=   131072                   0                        0
    131072 < size <=  4194304                   0                        0
   4194304 < size <= 16777216                   0                        0
  16777216 < size                               0                        0
 -------------------------------------------------------------------------------

 MEMORY| Estimated peak process memory [MiB]                                 426

 -------------------------------------------------------------------------------
 ----                             MULTIGRID INFO                            ----
 -------------------------------------------------------------------------------
 count for grid        1:        2403237          cutoff [a.u.]          250.00
 count for grid        2:         881858          cutoff [a.u.]           83.33
 count for grid        3:         416615          cutoff [a.u.]           27.78
 count for grid        4:         123223          cutoff [a.u.]            9.26
 count for grid        5:           1440          cutoff [a.u.]            3.09
 total gridlevel count  :        3826373

 -------------------------------------------------------------------------------
 -                                                                             -
 -                         MESSAGE PASSING PERFORMANCE                         -
 -                                                                             -
 -------------------------------------------------------------------------------

 ROUTINE             CALLS      AVE VOLUME [Bytes]
 MP_Group               32
 MP_Bcast             1165                 280126.
 MP_Allreduce         6724                    641.
 MP_Sync               811
 MP_Alltoall          8838                1911670.
 MP_ISendRecv       167024                  44308.
 MP_Wait            442816
 MP_comm_split           2
 MP_ISend           130312                  54528.
 MP_IRecv           130312                  54262.
 MP_Recv               110                  47628.
 MP_Memory           89598
 -------------------------------------------------------------------------------


 -------------------------------------------------------------------------------
 -                                                                             -
 -                           R E F E R E N C E S                               -
 -                                                                             -
 -------------------------------------------------------------------------------
 
 CP2K version 5.1, the CP2K developers group (2017).
 CP2K is freely available from https://www.cp2k.org/ .

 Schuett, Ole; Messmer, Peter; Hutter, Juerg; VandeVondele, Joost. 
 Electronic Structure Calculations on Graphics Processing Units, John Wiley & Sons, Ltd, 173-190 (2016). 
 GPU-Accelerated Sparse Matrix-Matrix Multiplication for Linear Scaling Density Functional Theory.
 http://dx.doi.org/10.1002/9781118670712.ch8


 Borstnik, U; VandeVondele, J; Weber, V; Hutter, J. 
 PARALLEL COMPUTING, 40 (5-6), 47-58 (2014). 
 Sparse matrix multiplication: The distributed block-compressed sparse
 row library.
 http://dx.doi.org/10.1016/j.parco.2014.03.012


 Hutter, J; Iannuzzi, M; Schiffmann, F; VandeVondele, J. 
 WILEY INTERDISCIPLINARY REVIEWS-COMPUTATIONAL MOLECULAR SCIENCE, 4 (1), 15-25 (2014). 
 CP2K: atomistic simulations of condensed matter systems.
 http://dx.doi.org/10.1002/wcms.1159


 Guidon, M; Hutter, J; VandeVondele, J. 
 JOURNAL OF CHEMICAL THEORY AND COMPUTATION, 5 (11), 3010-3021 (2009). 
 Robust Periodic Hartree-Fock Exchange for Large-Scale Simulations Using
 Gaussian Basis Sets.
 http://dx.doi.org/10.1021/ct900494g


 Guidon, M; Schiffmann, F; Hutter, J; VandeVondele, J. 
 JOURNAL OF CHEMICAL PHYSICS, 128 (21), 214104 (2008). 
 Ab initio molecular dynamics using hybrid density functionals.
 http://dx.doi.org/10.1063/1.2931945


 Krack, M. 
 THEORETICAL CHEMISTRY ACCOUNTS, 114 (1-3), 145-152 (2005). 
 Pseudopotentials for H to Kr optimized for gradient-corrected
 exchange-correlation functionals.
 http://dx.doi.org/10.1007/s00214-005-0655-y


 VandeVondele, J; Krack, M; Mohamed, F; Parrinello, M; Chassaing, T;
 Hutter, J. COMPUTER PHYSICS COMMUNICATIONS, 167 (2), 103-128 (2005). 
 QUICKSTEP: Fast and accurate density functional calculations using a
 mixed Gaussian and plane waves approach.
 http://dx.doi.org/10.1016/j.cpc.2004.12.014


 Frigo, M; Johnson, SG. 
 PROCEEDINGS OF THE IEEE, 93 (2), 216-231 (2005). 
 The design and implementation of FFTW3.
 http://dx.doi.org/10.1109/JPROC.2004.840301


 VandeVondele, J; Hutter, J. 
 JOURNAL OF CHEMICAL PHYSICS, 118 (10), 4365-4369 (2003). 
 An efficient orbital transformation method for electronic structure
 calculations.
 http://dx.doi.org/10.1063/1.1543154


 Hartwigsen, C; Goedecker, S; Hutter, J. 
 PHYSICAL REVIEW B, 58 (7), 3641-3662 (1998). 
 Relativistic separable dual-space Gaussian pseudopotentials from H to Rn.
 http://dx.doi.org/10.1103/PhysRevB.58.3641


 Lippert, G; Hutter, J; Parrinello, M. 
 MOLECULAR PHYSICS, 92 (3), 477-487 (1997). 
 A hybrid Gaussian and plane wave density functional scheme.
 http://dx.doi.org/10.1080/002689797170220


 Goedecker, S; Teter, M; Hutter, J. 
 PHYSICAL REVIEW B, 54 (3), 1703-1710 (1996). 
 Separable dual-space Gaussian pseudopotentials.
 http://dx.doi.org/10.1103/PhysRevB.54.1703


 -------------------------------------------------------------------------------
 -                                                                             -
 -                                T I M I N G                                  -
 -                                                                             -
 -------------------------------------------------------------------------------
 SUBROUTINE                       CALLS  ASD         SELF TIME        TOTAL TIME
                                MAXIMUM       AVERAGE  MAXIMUM  AVERAGE  MAXIMUM
 CP2K                                 1  1.0    0.021    0.047  148.019  148.020
 qs_energies                          1  2.0    0.000    0.000  147.618  147.618
 scf_env_do_scf                       1  3.0    0.000    0.000  146.584  146.585
 scf_env_do_scf_inner_loop           89  4.0    0.003    0.007   97.770   97.778
 qs_ks_update_qs_env                 90  5.0    0.001    0.001   97.771   97.777
 rebuild_ks_matrix                   89  6.0    0.000    0.000   97.751   97.756
 qs_ks_build_kohn_sham_matrix        89  7.0    0.009    0.009   97.750   97.756
 hfx_ks_matrix                       89  8.0    0.001    0.001   72.782   72.849
 integrate_four_center               89  9.0    0.086    0.385   72.776   72.842
 integrate_four_center_main          89 10.0    0.011    0.014   64.629   67.842
 integrate_four_center_bin         5696 11.0   64.618   67.831   64.618   67.831
 init_scf_loop                        1  4.0    0.000    0.000   48.804   48.804
 qs_rho_update_rho                   90  5.0    0.001    0.001   46.930   46.938
 calculate_rho_elec                 180  6.0    1.748    5.401   46.930   46.937
 density_rs2pw                      180  7.0    0.009    0.011   41.842   42.927
 pw_transfer                       1754  8.9    0.074    0.094   35.821   35.994
 fft_wrap_pw1pw2                   1576  9.9    0.011    0.014   35.260   35.427
 fft_wrap_pw1pw2_250                496 10.5    1.866    1.949   29.372   29.681
 fft3d_ps                          1576 11.9   11.870   13.155   28.567   28.871
 rs_pw_transfer                    1354  9.0    0.015    0.023   24.148   25.188
 sum_up_and_integrate                45  8.0    0.000    0.001   19.679   19.682
 integrate_v_rspace                  90  9.0    1.068    3.437   19.679   19.681
 potential_pw2rs                     90 10.0    0.018    0.023   16.008   16.019
 mp_alltoall_z22v                  1576 13.9   12.235   12.967   12.235   12.967
 rs_pw_transfer_RS2PW_250           182  9.0    3.840    4.949    8.092    9.574
 mp_sync                            811 10.9    6.439    9.572    6.439    9.572
 yz_to_x                            451 12.6    1.425    1.539    8.854    9.360
 mp_waitany                       22848 11.0    6.954    8.604    6.954    8.604
 x_to_yz                            315 12.9    1.650    1.767    6.363    6.667
 mp_waitall_1                    419968 12.2    4.388    5.037    4.388    5.037
 fft_wrap_pw1pw2_90                 270 11.0    0.171    0.237    4.170    4.580
 rs_pw_transfer_RS2PW_90            180  9.0    1.782    2.141    3.221    3.989
 mp_alltoall_d11v                  1015 11.2    3.055    3.880    3.055    3.880
 rs_distribute_matrix               270  8.0    0.017    0.050    3.045    3.857
 rs_pw_transfer_PW2RS_250            92 11.9    2.172    2.414    3.677    3.849
 rs_pw_transfer_RS2PW_30            180  9.0    1.606    1.748    3.228    3.357
 pw_gather_p                        991 11.3    2.916    3.035    2.916    3.035
 -------------------------------------------------------------------------------

 The number of warnings for this run is : 0
 
 -------------------------------------------------------------------------------
  **** **** ******  **  PROGRAM ENDED AT                 2019-07-13 09:01:34.336
 ***** ** ***  *** **   PROGRAM RAN ON            cpn-u26-09.cbls.ccr.buffalo.ed
 **    ****   ******    PROGRAM RAN BY                                  pavankum
 ***** **    ** ** **   PROGRAM PROCESS ID                                362385
  **** **  *******  **  PROGRAM STOPPED IN /projects/academic/mdupuis2/pavan/VAB
                                           _calculation/23.Fe_clust_paper/7units
                                           _dzv/GPW/largecell/point_0.1
