 DBCSR| Multiplication driver                                               BLAS
 DBCSR| Multrec recursion limit                                              512
 DBCSR| Multiplication stack size                                           1000
 DBCSR| Maximum elements for images                                    UNLIMITED
 DBCSR| Multiplicative factor virtual images                                   1
 DBCSR| Multiplication size stacks                                             3
 DBCSR| Number of 3D layers                                               SINGLE
 DBCSR| Use MPI memory allocation                                              T
 DBCSR| Use RMA algorithm                                                      F
 DBCSR| Use Communication thread                                               T
 DBCSR| Communication thread load                                             87


  **** **** ******  **  PROGRAM STARTED AT               2019-08-09 14:08:06.273
 ***** ** ***  *** **   PROGRAM STARTED ON        cpn-u25-21.cbls.ccr.buffalo.ed
 **    ****   ******    PROGRAM STARTED BY                              pavankum
 ***** **    ** ** **   PROGRAM PROCESS ID                                401492
  **** **  *******  **  PROGRAM STARTED IN /projects/academic/mdupuis2/pavan/VAB
                                           _calculation/results_for_paper/3.1D_F
                                           e_7units/blyp_plusU5/mixed

 CP2K| version string:                                          CP2K version 6.1
 CP2K| source code revision number:                                    svn:18464
 CP2K| cp2kflags: libint fftw3 libxc parallel mpi3 scalapack libderiv_max_am1=5 
 CP2K|            libint_max_am=6
 CP2K| is freely available from                            https://www.cp2k.org/
 CP2K| Program compiled at                          Fri Nov 30 14:17:09 EST 2018
 CP2K| Program compiled on                       srv-p22-12.cbls.ccr.buffalo.edu
 CP2K| Program compiled for                                                local
 CP2K| Data directory path    /projects/academic/mdupuis2/pavan/cp2k/cp2k-6.1/da
 CP2K| Input file name                                                 input.inp

 GLOBAL| Force Environment number                                              3
 GLOBAL| Basis set file name                                           BASIS_SET
 GLOBAL| Potential file name                                           POTENTIAL
 GLOBAL| MM Potential file name                                     MM_POTENTIAL
 GLOBAL| Coordinate file name                                     ./midpoint.xyz
 GLOBAL| Force Environment number                                              1
 GLOBAL| Basis set file name            /projects/academic/mdupuis2/pavan/BASIS_
 GLOBAL| Potential file name            /projects/academic/mdupuis2/pavan/POTENT
 GLOBAL| MM Potential file name                                     MM_POTENTIAL
 GLOBAL| Coordinate file name                                     ./midpoint.xyz
 GLOBAL| Force Environment number                                              2
 GLOBAL| Basis set file name            /projects/academic/mdupuis2/pavan/BASIS_
 GLOBAL| Potential file name            /projects/academic/mdupuis2/pavan/POTENT
 GLOBAL| MM Potential file name                                     MM_POTENTIAL
 GLOBAL| Coordinate file name                                     ./midpoint.xyz
 GLOBAL| Method name                                                        CP2K
 GLOBAL| Project name                                                      p_fe_
 GLOBAL| Preferred FFT library                                             FFTW3
 GLOBAL| Preferred diagonalization lib.                                       SL
 GLOBAL| Run type                                                         ENERGY
 GLOBAL| All-to-all communication in single precision                          F
 GLOBAL| FFTs using library dependent lengths                                  T
 GLOBAL| Global print level                                               MEDIUM
 GLOBAL| Total number of message passing processes                            64
 GLOBAL| Number of threads for this process                                    1
 GLOBAL| This output is from process                                           0
 GLOBAL| CPU model name :  Intel(R) Xeon(R) Gold 6130 CPU @ 2.10GHz

 MEMORY| system memory details [Kb]
 MEMORY|                        rank 0           min           max       average
 MEMORY| MemTotal            196307064     196307064     196307064     196307064
 MEMORY| MemFree             189593724     187117736     189593724     188356778
 MEMORY| Buffers                 22164         22164         33084         27624
 MEMORY| Cached                 563264        563264        652592        607928
 MEMORY| Slab                   570776        570776        656848        613812
 MEMORY| SReclaimable           206204        206204        294720        250462
 MEMORY| MemLikelyFree       190385356     188098132     190385356     189242792


 *** Fundamental physical constants (SI units) ***

 *** Literature: B. J. Mohr and B. N. Taylor,
 ***             CODATA recommended values of the fundamental physical
 ***             constants: 2006, Web Version 5.1
 ***             http://physics.nist.gov/constants

 Speed of light in vacuum [m/s]                             2.99792458000000E+08
 Magnetic constant or permeability of vacuum [N/A**2]       1.25663706143592E-06
 Electric constant or permittivity of vacuum [F/m]          8.85418781762039E-12
 Planck constant (h) [J*s]                                  6.62606896000000E-34
 Planck constant (h-bar) [J*s]                              1.05457162825177E-34
 Elementary charge [C]                                      1.60217648700000E-19
 Electron mass [kg]                                         9.10938215000000E-31
 Electron g factor [ ]                                     -2.00231930436220E+00
 Proton mass [kg]                                           1.67262163700000E-27
 Fine-structure constant                                    7.29735253760000E-03
 Rydberg constant [1/m]                                     1.09737315685270E+07
 Avogadro constant [1/mol]                                  6.02214179000000E+23
 Boltzmann constant [J/K]                                   1.38065040000000E-23
 Atomic mass unit [kg]                                      1.66053878200000E-27
 Bohr radius [m]                                            5.29177208590000E-11

 *** Conversion factors ***

 [u] -> [a.u.]                                              1.82288848426455E+03
 [Angstrom] -> [Bohr] = [a.u.]                              1.88972613288564E+00
 [a.u.] = [Bohr] -> [Angstrom]                              5.29177208590000E-01
 [a.u.] -> [s]                                              2.41888432650478E-17
 [a.u.] -> [fs]                                             2.41888432650478E-02
 [a.u.] -> [J]                                              4.35974393937059E-18
 [a.u.] -> [N]                                              8.23872205491840E-08
 [a.u.] -> [K]                                              3.15774647902944E+05
 [a.u.] -> [kJ/mol]                                         2.62549961709828E+03
 [a.u.] -> [kcal/mol]                                       6.27509468713739E+02
 [a.u.] -> [Pa]                                             2.94210107994716E+13
 [a.u.] -> [bar]                                            2.94210107994716E+08
 [a.u.] -> [atm]                                            2.90362800883016E+08
 [a.u.] -> [eV]                                             2.72113838565563E+01
 [a.u.] -> [Hz]                                             6.57968392072181E+15
 [a.u.] -> [1/cm] (wave numbers)                            2.19474631370540E+05
 [a.u./Bohr**2] -> [1/cm]                                   5.14048714338585E+03
 
 MIXED_ENV| Number of created MPI groups:                                      1
 MIXED_ENV| Task to group correspondence:
  (   0 :    0)  (   1 :    0)  (   2 :    0)  (   3 :    0)
  (   4 :    0)  (   5 :    0)  (   6 :    0)  (   7 :    0)
  (   8 :    0)  (   9 :    0)  (  10 :    0)  (  11 :    0)
  (  12 :    0)  (  13 :    0)  (  14 :    0)  (  15 :    0)
  (  16 :    0)  (  17 :    0)  (  18 :    0)  (  19 :    0)
  (  20 :    0)  (  21 :    0)  (  22 :    0)  (  23 :    0)
  (  24 :    0)  (  25 :    0)  (  26 :    0)  (  27 :    0)
  (  28 :    0)  (  29 :    0)  (  30 :    0)  (  31 :    0)
  (  32 :    0)  (  33 :    0)  (  34 :    0)  (  35 :    0)
  (  36 :    0)  (  37 :    0)  (  38 :    0)  (  39 :    0)
  (  40 :    0)  (  41 :    0)  (  42 :    0)  (  43 :    0)
  (  44 :    0)  (  45 :    0)  (  46 :    0)  (  47 :    0)
  (  48 :    0)  (  49 :    0)  (  50 :    0)  (  51 :    0)
  (  52 :    0)  (  53 :    0)  (  54 :    0)  (  55 :    0)
  (  56 :    0)  (  57 :    0)  (  58 :    0)  (  59 :    0)
  (  60 :    0)  (  61 :    0)  (  62 :    0)  (  63 :    0)
          ----------------------------------------------------------------------
 COLVARS| COLVAR INPUT INDEX:        1
 COLVARS| ENERGY          >>> ATOMS:                                        all!
          ----------------------------------------------------------------------

 CELL_TOP| Volume [angstrom^3]:                                        26196.625
 CELL_TOP| Vector a [angstrom    21.385     0.000     0.000    |a| =      21.385
 CELL_TOP| Vector b [angstrom     0.000    35.000     0.000    |b| =      35.000
 CELL_TOP| Vector c [angstrom     0.000     0.000    35.000    |c| =      35.000
 CELL_TOP| Angle (b,c), alpha [degree]:                                   90.000
 CELL_TOP| Angle (a,c), beta  [degree]:                                   90.000
 CELL_TOP| Angle (a,b), gamma [degree]:                                   90.000
 CELL_TOP| Numerically orthorhombic:                                         YES

 GENERATE|  Preliminary Number of Bonds generated:                             0
 GENERATE|  Achieved consistency in connectivity generation.

 CELL| Volume [angstrom^3]:                                            26196.625
 CELL| Vector a [angstrom]:      21.385     0.000     0.000    |a| =      21.385
 CELL| Vector b [angstrom]:       0.000    35.000     0.000    |b| =      35.000
 CELL| Vector c [angstrom]:       0.000     0.000    35.000    |c| =      35.000
 CELL| Angle (b,c), alpha [degree]:                                       90.000
 CELL| Angle (a,c), beta  [degree]:                                       90.000
 CELL| Angle (a,b), gamma [degree]:                                       90.000
 CELL| Numerically orthorhombic:                                             YES

 CELL_REF| Volume [angstrom^3]:                                        26196.625
 CELL_REF| Vector a [angstrom    21.385     0.000     0.000    |a| =      21.385
 CELL_REF| Vector b [angstrom     0.000    35.000     0.000    |b| =      35.000
 CELL_REF| Vector c [angstrom     0.000     0.000    35.000    |c| =      35.000
 CELL_REF| Angle (b,c), alpha [degree]:                                   90.000
 CELL_REF| Angle (a,c), beta  [degree]:                                   90.000
 CELL_REF| Angle (a,b), gamma [degree]:                                   90.000
 CELL_REF| Numerically orthorhombic:                                         YES


 MOLECULE KIND INFORMATION


 All atoms are their own molecule, skipping detailed information

 *** WARNING in force_env_methods.F:1097 :: ASSERTION (cond) failed at   ***
 *** line   1098 Error (0.129985E-11) in computing numerical derivatives ***
 *** larger then(0.100000E-11) .                                         ***


 *** WARNING in force_env_methods.F:1097 :: ASSERTION (cond) failed at   ***
 *** line   1098 Error (0.129985E-11) in computing numerical derivatives ***
 *** larger then(0.100000E-11) .                                         ***


  HFX_INFO| Replica ID:                                                        1
  HFX_INFO| EPS_SCHWARZ:                                                 1.0E-14
  HFX_INFO| EPS_SCHWARZ_FORCES                                           1.0E-06
  HFX_INFO| EPS_STORAGE_SCALING:                                         1.0E+00
  HFX_INFO| NBINS:                                                            64
  HFX_INFO| BLOCK_SIZE:                                                        1
  HFX_INFO| FRACTION:                                               1.0000000000
  HFX_INFO| Interaction Potential:                                     TRUNCATED
  HFX_INFO| Cutoff Radius [angstrom]:                              10.6711000000
  HFX_INFO| NUMBER_OF_SHELLS:                                               AUTO
  HFX_INFO| Number of periodic shells considered:                             -1
  HFX_INFO| Number of periodic cells considered:                              27

 nspins, nimgs, gapw_xc           2           1 F 

 ####### CHECKS ON A and B #######
  E_A before:  -1335.5143281043258     
  E_B before:  -1335.5141673285375     
 ####### - #######
##Inside build_kohn_sham_matrix() before doing any function calls
 i). ELECTRON ONLY CALLS
 1. Electron_pw   4583.8164659963832     
 2. Electron_1c   0.0000000000000000     
 ########## After 1st poisson call pure hartree  (sum of above two quantities) ##########   4583.8164659963832     
 ########################
 1. Nuclear_pw   6183.3041110256281     
 2. Nuclear_1c   0.0000000000000000     
 1. Hartree_pw   754.86206708013174     
 2. Hartree_1c   0.0000000000000000     
 Regular: Before call to qs_vxc Regular_exc, exc1  -203.87024620376985        0.0000000000000000     
 Regular: After call to qs_vxc_create Regular_exc, exc1   0.0000000000000000        0.0000000000000000     

  HFX_MEM_INFO| Est. max. program size before HFX [MiB]:                    1753
  HFX_MEM_INFO| Number of cart. primitive ERI's calculated:         103055180667
  HFX_MEM_INFO| Number of sph. ERI's calculated:                      4927501914
  HFX_MEM_INFO| Number of sph. ERI's stored in-core:                  4927501914
  HFX_MEM_INFO| Number of sph. ERI's stored on disk:                           0
  HFX_MEM_INFO| Number of sph. ERI's calculated on the fly:                    0
  HFX_MEM_INFO| Total memory consumption ERI's RAM [MiB]:                  20256
  HFX_MEM_INFO| Whereof max-vals [MiB]:                                        4
  HFX_MEM_INFO| Total compression factor ERI's RAM:                         1.86
  HFX_MEM_INFO| Total memory consumption ERI's disk [MiB]:                     0
  HFX_MEM_INFO| Total compression factor ERI's disk:                        0.00
  HFX_MEM_INFO| Size of density/Fock matrix [MiB]:                             0
  HFX_MEM_INFO| Size of buffers [MiB]:                                         1
  HFX_MEM_INFO| Number of periodic image cells considered:                    27
  HFX_MEM_INFO| Est. max. program size after HFX  [MiB]:                    2061

 iv). EXCHANGE ENERGY   -190.17763713617205     
 v). POTENTIAL ENERGY FROM CORE HAMILTONIAN   -99.332711157353856     
 vi). KINETIC ENERGY    844.44259440282917     
 vii). SELF ENERGY   -2631.5958042947350     
      
 E_NUC is    3551.7083067308931     
      
IN build_kohn_sham_matrix() CALLING qs_ks_atom(),updates single atom contributions due to gapw
Inside build_kohn_sham_matrix() after doing all function calls and evaluating energy
 CHECK ON A IS DONE, E_A after passing modified PA_hat density:  -1321.8014906922433     
##Inside build_kohn_sham_matrix() before doing any function calls
 i). ELECTRON ONLY CALLS
 1. Electron_pw   4583.8163459300376     
 2. Electron_1c   0.0000000000000000     
 ########## After 1st poisson call pure hartree  (sum of above two quantities) ##########   4583.8163459300376     
 ########################
 1. Nuclear_pw   6183.3041110256281     
 2. Nuclear_1c   0.0000000000000000     
 1. Hartree_pw   754.86338824747145     
 2. Hartree_1c   0.0000000000000000     
 Regular: Before call to qs_vxc Regular_exc, exc1   0.0000000000000000        0.0000000000000000     
 Regular: After call to qs_vxc_create Regular_exc, exc1   0.0000000000000000        0.0000000000000000     
 iv). EXCHANGE ENERGY   -190.17725401609255     
 v). POTENTIAL ENERGY FROM CORE HAMILTONIAN   -99.332252977311100     
 vi). KINETIC ENERGY    844.44063486211826     
 vii). SELF ENERGY   -2631.5958042947350     
      
 E_NUC is    3551.7083067308931     
      
IN build_kohn_sham_matrix() CALLING qs_ks_atom(),updates single atom contributions due to gapw
Inside build_kohn_sham_matrix() after doing all function calls and evaluating energy
 CHECK ON B IS DONE, E_B after passing modified PB_hat density:  -1321.8012877654924     
 DOING ANTI-SYMMETRIC PART OF VAB
##Inside build_kohn_sham_matrix() before doing any function calls
 i). ELECTRON ONLY CALLS
 1. Electron_pw   2.0023789903888863E-003
 2. Electron_1c   0.0000000000000000     
 ########## After 1st poisson call pure hartree  (sum of above two quantities) ##########   2.0023789903888863E-003
 ########################
 1. Nuclear_pw   6183.3041110256281     
 2. Nuclear_1c   0.0000000000000000     
 1. Hartree_pw   6184.0832968107843     
 2. Hartree_1c   0.0000000000000000     
 Regular: Before call to qs_vxc Regular_exc, exc1   0.0000000000000000        0.0000000000000000     
 Regular: After call to qs_vxc_create Regular_exc, exc1   0.0000000000000000        0.0000000000000000     
 iv). EXCHANGE ENERGY   -3.2525984454927437E-002
 v). POTENTIAL ENERGY FROM CORE HAMILTONIAN   -1.2691597033115225E-004
 vi). KINETIC ENERGY   -5.3317460989506255E-003
 vii). SELF ENERGY   -2631.5958042947350     
      
 E_NUC is    3551.7083067308931     
      
IN build_kohn_sham_matrix() CALLING qs_ks_atom(),updates single atom contributions due to gapw
Inside build_kohn_sham_matrix() after doing all function calls and evaluating energy
 DOING SYMMETRIC PART OF VAB
##Inside build_kohn_sham_matrix() before doing any function calls
 i). ELECTRON ONLY CALLS
 1. Electron_pw   495.05528787277240     
 2. Electron_1c   0.0000000000000000     
 ########## After 1st poisson call pure hartree  (sum of above two quantities) ##########   495.05528787277240     
 ########################
 ehartree, ehartree_1c after multiplying with DTPROD/DHPROD  -1506.1613497547935       -0.0000000000000000     
 dtprod, dhprod are  -1.0000000000003191       0.32868675587348362     
 J2_AB is   -1506.1613497547935     
 1. Nuclear_pw   6183.3041110256281     
 2. Nuclear_1c   0.0000000000000000     
 1. Hartree_pw   3388.0826730322742     
 2. Hartree_1c   0.0000000000000000     
 Regular: Before call to qs_vxc Regular_exc, exc1   0.0000000000000000        0.0000000000000000     
 Regular: After call to qs_vxc_create Regular_exc, exc1   0.0000000000000000        0.0000000000000000     
 iv). EXCHANGE ENERGY   -20.564249072801033     
 v). POTENTIAL ENERGY FROM CORE HAMILTONIAN   -32.554119447346693     
 vi). KINETIC ENERGY    277.27317917539290     
 vii). SELF ENERGY   -2631.5958042947350     
      
 E_NUC is    3551.7083067308931     
      
IN build_kohn_sham_matrix() CALLING qs_ks_atom(),updates single atom contributions due to gapw
 ########################
 #########  ET  #########
 ------------------------
 E_NUC   3551.7083067308931     
 HAA <a|H|a>  -4873.5097982492498     
 HBB <b|H|b>  -4873.5095953224982     
             
 <a|H1|b>   3045.5576665521080     
 <a|H2|b>  -1443.6954221764531     
 ...<a|J2|b>  -1506.1613497547935     
 ...<a|K2|b>   62.465927578340334     
 HAB <a|H|b>   1601.8622443756549     
 SAB -0.32868675587358848     
 VAB   4.6566095247014870E-003
  VAB in different units 
 ------------------------
         0.12671278924674834      eV
          1022.0076588704044      1/cm
          2.9220665688527667      kcal/mol
          12.225926524079977      kJ/mol
          30639018814758.398      Hertz
 ------------------------
 ------------------------
 E+  -4873.5035108295078     
 E-  -4873.5128224301388     
 (E+ - E-)/2   4.6558003151758228E-003
         0.12669076953572511      eV
          1021.8300579080577      1/cm
          2.9215587822132392      kcal/mol
          12.223801944780194      kJ/mol
          30633694471853.891      Hertz
 ------------------------
 ------------------------
Inside build_kohn_sham_matrix() after doing all function calls and evaluating energy
 NO FORCE_EVAL section calculated the dipole

 ENERGY| Total FORCE_EVAL ( MIXED ) energy (a.u.):            -0.000160775788345


 -------------------------------------------------------------------------------
 -                                                                             -
 -                                DBCSR STATISTICS                             -
 -                                                                             -
 -------------------------------------------------------------------------------
 COUNTER                                    TOTAL       BLAS       SMM       ACC
 flops    13 x    13 x    13                 8788     100.0%      0.0%      0.0%
 flops    15 x    15 x    15                13500     100.0%      0.0%      0.0%
 flops     2 x    13 x    13                56784     100.0%      0.0%      0.0%
 flops     2 x    15 x    15                75600     100.0%      0.0%      0.0%
 flops    13 x    13 x    32                86528     100.0%      0.0%      0.0%
 flops    13 x    32 x    13                86528     100.0%      0.0%      0.0%
 flops    32 x    13 x    13                86528     100.0%      0.0%      0.0%
 flops    19 x    13 x    13                89908     100.0%      0.0%      0.0%
 flops    56 x    13 x    13               113568     100.0%      0.0%      0.0%
 flops    13 x    13 x    56               113568     100.0%      0.0%      0.0%
 flops    19 x    15 x    15               119700     100.0%      0.0%      0.0%
 flops    15 x    15 x    32               144000     100.0%      0.0%      0.0%
 flops    15 x    32 x    15               144000     100.0%      0.0%      0.0%
 flops    32 x    15 x    15               144000     100.0%      0.0%      0.0%
 flops    56 x    15 x    15               151200     100.0%      0.0%      0.0%
 flops    15 x    15 x    56               151200     100.0%      0.0%      0.0%
 flops     8 x    13 x    13               151424     100.0%      0.0%      0.0%
 flops     8 x    15 x    15               201600     100.0%      0.0%      0.0%
 flops    56 x    13 x    56               326144     100.0%      0.0%      0.0%
 flops     2 x     2 x    13               375648     100.0%      0.0%      0.0%
 flops    56 x    15 x    56               376320     100.0%      0.0%      0.0%
 flops     2 x     2 x    15               433440     100.0%      0.0%      0.0%
 flops    19 x     2 x    13               580944     100.0%      0.0%      0.0%
 flops     2 x    19 x    13               580944     100.0%      0.0%      0.0%
 flops    19 x     2 x    15               670320     100.0%      0.0%      0.0%
 flops     2 x    19 x    15               670320     100.0%      0.0%      0.0%
 flops    55 x    13 x    13               780780     100.0%      0.0%      0.0%
 flops    13 x    13 x    55               780780     100.0%      0.0%      0.0%
 flops    32 x    32 x    13               851968     100.0%      0.0%      0.0%
 flops    13 x    32 x    32               851968     100.0%      0.0%      0.0%
 flops    32 x    13 x    32               851968     100.0%      0.0%      0.0%
 flops     8 x     2 x    13               978432     100.0%      0.0%      0.0%
 flops     2 x     8 x    13               978432     100.0%      0.0%      0.0%
 flops    55 x    15 x    15              1039500     100.0%      0.0%      0.0%
 flops    15 x    15 x    55              1039500     100.0%      0.0%      0.0%
 flops    19 x    19 x    13              1051232     100.0%      0.0%      0.0%
 flops    56 x    13 x    32              1118208     100.0%      0.0%      0.0%
 flops    56 x    32 x    13              1118208     100.0%      0.0%      0.0%
 flops    13 x    32 x    56              1118208     100.0%      0.0%      0.0%
 flops    32 x    13 x    56              1118208     100.0%      0.0%      0.0%
 flops     8 x     2 x    15              1128960     100.0%      0.0%      0.0%
 flops     2 x     8 x    15              1128960     100.0%      0.0%      0.0%
 flops    19 x    19 x    15              1212960     100.0%      0.0%      0.0%
 flops    32 x    32 x    15              1536000     100.0%      0.0%      0.0%
 flops    15 x    32 x    32              1536000     100.0%      0.0%      0.0%
 flops    32 x    15 x    32              1536000     100.0%      0.0%      0.0%
 flops    19 x     8 x    13              1549184     100.0%      0.0%      0.0%
 flops     8 x    19 x    13              1549184     100.0%      0.0%      0.0%
 flops    56 x    15 x    32              1612800     100.0%      0.0%      0.0%
 flops    56 x    32 x    15              1612800     100.0%      0.0%      0.0%
 flops    15 x    32 x    56              1612800     100.0%      0.0%      0.0%
 flops    32 x    15 x    56              1612800     100.0%      0.0%      0.0%
 flops     2 x    15 x     2              1693440     100.0%      0.0%      0.0%
 flops    19 x     8 x    15              1787520     100.0%      0.0%      0.0%
 flops     8 x    19 x    15              1787520     100.0%      0.0%      0.0%
 flops     2 x    13 x     2              1834560     100.0%      0.0%      0.0%
 flops    55 x    13 x    56              2242240     100.0%      0.0%      0.0%
 flops    56 x    13 x    55              2242240     100.0%      0.0%      0.0%
 flops    55 x    15 x    56              2587200     100.0%      0.0%      0.0%
 flops    56 x    15 x    55              2587200     100.0%      0.0%      0.0%
 flops    19 x    15 x     2              2681280     100.0%      0.0%      0.0%
 flops     2 x    15 x    19              2681280     100.0%      0.0%      0.0%
 flops     8 x     8 x    13              2702336     100.0%      0.0%      0.0%
 flops    19 x    13 x     2              2904720     100.0%      0.0%      0.0%
 flops     2 x    13 x    19              2904720     100.0%      0.0%      0.0%
 flops     2 x    32 x    32              3096576     100.0%      0.0%      0.0%
 flops     8 x     8 x    15              3118080     100.0%      0.0%      0.0%
 flops    19 x    15 x    19              4245360     100.0%      0.0%      0.0%
 flops     8 x    15 x     2              4515840     100.0%      0.0%      0.0%
 flops     2 x    15 x     8              4515840     100.0%      0.0%      0.0%
 flops    19 x    13 x    19              4599140     100.0%      0.0%      0.0%
 flops     8 x    13 x     2              4892160     100.0%      0.0%      0.0%
 flops     2 x    13 x     8              4892160     100.0%      0.0%      0.0%
 flops    19 x    32 x    32              4902912     100.0%      0.0%      0.0%
 flops    19 x    15 x     8              7150080     100.0%      0.0%      0.0%
 flops     8 x    15 x    19              7150080     100.0%      0.0%      0.0%
 flops    56 x    32 x    56              7225344     100.0%      0.0%      0.0%
 flops    55 x    32 x    13              7687680     100.0%      0.0%      0.0%
 flops    55 x    13 x    32              7687680     100.0%      0.0%      0.0%
 flops    13 x    32 x    55              7687680     100.0%      0.0%      0.0%
 flops    32 x    13 x    55              7687680     100.0%      0.0%      0.0%
 flops    19 x    13 x     8              7745920     100.0%      0.0%      0.0%
 flops     8 x    13 x    19              7745920     100.0%      0.0%      0.0%
 flops     8 x    32 x    32              8257536     100.0%      0.0%      0.0%
 flops     2 x     2 x    32              8322048     100.0%      0.0%      0.0%
 flops    55 x    32 x    15             11088000     100.0%      0.0%      0.0%
 flops    55 x    15 x    32             11088000     100.0%      0.0%      0.0%
 flops    15 x    32 x    55             11088000     100.0%      0.0%      0.0%
 flops    32 x    15 x    55             11088000     100.0%      0.0%      0.0%
 flops     8 x    15 x     8             12042240     100.0%      0.0%      0.0%
 flops    19 x     2 x    32             12870144     100.0%      0.0%      0.0%
 flops     2 x    19 x    32             12870144     100.0%      0.0%      0.0%
 flops     8 x    13 x     8             13045760     100.0%      0.0%      0.0%
 flops    55 x    13 x    55             15415400     100.0%      0.0%      0.0%
 flops    55 x    15 x    55             17787000     100.0%      0.0%      0.0%
 flops     8 x     2 x    32             21676032     100.0%      0.0%      0.0%
 flops     2 x     8 x    32             21676032     100.0%      0.0%      0.0%
 flops    19 x    19 x    32             23288832     100.0%      0.0%      0.0%
 flops    32 x    32 x    32             24772608     100.0%      0.0%      0.0%
 flops    32 x    32 x    56             28213248     100.0%      0.0%      0.0%
 flops    56 x    32 x    32             28213248     100.0%      0.0%      0.0%
 flops    19 x     8 x    32             34320384     100.0%      0.0%      0.0%
 flops     8 x    19 x    32             34320384     100.0%      0.0%      0.0%
 flops     2 x    32 x     2             36126720     100.0%      0.0%      0.0%
 flops    55 x    32 x    56             49674240     100.0%      0.0%      0.0%
 flops    56 x    32 x    55             49674240     100.0%      0.0%      0.0%
 flops    19 x    32 x     2             57200640     100.0%      0.0%      0.0%
 flops     2 x    32 x    19             57200640     100.0%      0.0%      0.0%
 flops     8 x     8 x    32             59867136     100.0%      0.0%      0.0%
 flops    19 x    32 x    19             90567680     100.0%      0.0%      0.0%
 flops     8 x    32 x     2             96337920     100.0%      0.0%      0.0%
 flops     2 x    32 x     8             96337920     100.0%      0.0%      0.0%
 flops    19 x    32 x     8            152535040     100.0%      0.0%      0.0%
 flops     8 x    32 x    19            152535040     100.0%      0.0%      0.0%
 flops    32 x    32 x    55            193966080     100.0%      0.0%      0.0%
 flops    55 x    32 x    32            193966080     100.0%      0.0%      0.0%
 flops     8 x    32 x     8            256901120     100.0%      0.0%      0.0%
 flops    55 x    32 x    55            341510400     100.0%      0.0%      0.0%
 flops inhomo. stacks                           0       0.0%      0.0%      0.0%
 flops total                         2.420285E+09     100.0%      0.0%      0.0%
 flops max/rank                     64.680736E+06     100.0%      0.0%      0.0%
 matmuls inhomo. stacks                         0       0.0%      0.0%      0.0%
 matmuls total                             724222     100.0%      0.0%      0.0%
 number of processed stacks                 82690     100.0%      0.0%      0.0%
 average stack size                                     8.8       0.0       0.0
 marketing flops                     2.821670E+09
 -------------------------------------------------------------------------------
 # multiplications                             70
 max memory usage/rank               1.837634E+09
 # max total images/rank                        1
 # max 3D layers                                1
 # MPI messages exchanged                   62720
 MPI messages size (bytes):
  total size                       631.645696E+06
  min size                           0.000000E+00
  max size                          25.088000E+03
  average size                      10.070882E+03
 MPI breakdown and total messages size (bytes):
             size <=      128               21448                        0
       128 < size <=     8192                9016                 57661296
      8192 < size <=    32768               32256                573984432
     32768 < size <=   131072                   0                        0
    131072 < size <=  4194304                   0                        0
   4194304 < size <= 16777216                   0                        0
  16777216 < size                               0                        0
 -------------------------------------------------------------------------------

 MEMORY| Estimated peak process memory [MiB]                                2099

 -------------------------------------------------------------------------------
 -                                                                             -
 -                         MESSAGE PASSING PERFORMANCE                         -
 -                                                                             -
 -------------------------------------------------------------------------------

 ROUTINE             CALLS      AVE VOLUME [Bytes]
 MP_Group               51
 MP_Bcast              908                 609293.
 MP_Allreduce         1044                  13804.
 MP_Sync               180
 MP_Alltoall          1184                8781244.
 MP_ISendRecv        11214                  73306.
 MP_Wait             20342
 MP_comm_split           1
 MP_ISend             5820                 225261.
 MP_IRecv             5796                 225126.
 MP_Recv                28                  70560.
 MP_Memory            2632
 -------------------------------------------------------------------------------


 -------------------------------------------------------------------------------
 -                                                                             -
 -                           R E F E R E N C E S                               -
 -                                                                             -
 -------------------------------------------------------------------------------
 
 CP2K version 6.1, the CP2K developers group (2018).
 CP2K is freely available from https://www.cp2k.org/ .

 Schuett, Ole; Messmer, Peter; Hutter, Juerg; VandeVondele, Joost. 
 Electronic Structure Calculations on Graphics Processing Units, John Wiley & Sons, Ltd, 173-190 (2016). 
 GPU-Accelerated Sparse Matrix-Matrix Multiplication for Linear Scaling Density Functional Theory.
 http://dx.doi.org/10.1002/9781118670712.ch8


 Borstnik, U; VandeVondele, J; Weber, V; Hutter, J. 
 PARALLEL COMPUTING, 40 (5-6), 47-58 (2014). 
 Sparse matrix multiplication: The distributed block-compressed sparse
 row library.
 http://dx.doi.org/10.1016/j.parco.2014.03.012


 Hutter, J; Iannuzzi, M; Schiffmann, F; VandeVondele, J. 
 WILEY INTERDISCIPLINARY REVIEWS-COMPUTATIONAL MOLECULAR SCIENCE, 4 (1), 15-25 (2014). 
 CP2K: atomistic simulations of condensed matter systems.
 http://dx.doi.org/10.1002/wcms.1159


 Guidon, M; Hutter, J; VandeVondele, J. 
 JOURNAL OF CHEMICAL THEORY AND COMPUTATION, 5 (11), 3010-3021 (2009). 
 Robust Periodic Hartree-Fock Exchange for Large-Scale Simulations Using
 Gaussian Basis Sets.
 http://dx.doi.org/10.1021/ct900494g


 Guidon, M; Schiffmann, F; Hutter, J; VandeVondele, J. 
 JOURNAL OF CHEMICAL PHYSICS, 128 (21), 214104 (2008). 
 Ab initio molecular dynamics using hybrid density functionals.
 http://dx.doi.org/10.1063/1.2931945


 Krack, M. 
 THEORETICAL CHEMISTRY ACCOUNTS, 114 (1-3), 145-152 (2005). 
 Pseudopotentials for H to Kr optimized for gradient-corrected
 exchange-correlation functionals.
 http://dx.doi.org/10.1007/s00214-005-0655-y


 VandeVondele, J; Krack, M; Mohamed, F; Parrinello, M; Chassaing, T;
 Hutter, J. COMPUTER PHYSICS COMMUNICATIONS, 167 (2), 103-128 (2005). 
 QUICKSTEP: Fast and accurate density functional calculations using a
 mixed Gaussian and plane waves approach.
 http://dx.doi.org/10.1016/j.cpc.2004.12.014


 Frigo, M; Johnson, SG. 
 PROCEEDINGS OF THE IEEE, 93 (2), 216-231 (2005). 
 The design and implementation of FFTW3.
 http://dx.doi.org/10.1109/JPROC.2004.840301


 VandeVondele, J; Hutter, J. 
 JOURNAL OF CHEMICAL PHYSICS, 118 (10), 4365-4369 (2003). 
 An efficient orbital transformation method for electronic structure
 calculations.
 http://dx.doi.org/10.1063/1.1543154


 Hartwigsen, C; Goedecker, S; Hutter, J. 
 PHYSICAL REVIEW B, 58 (7), 3641-3662 (1998). 
 Relativistic separable dual-space Gaussian pseudopotentials from H to Rn.
 http://dx.doi.org/10.1103/PhysRevB.58.3641


 Dudarev, SL; Botton, GA; Savrasov, SY; Humphreys, CJ; Sutton, AP. 
 PHYSICAL REVIEW B, 57 (3), 1505-1509 (1998). 
 Electron-energy-loss spectra and the structural stability of
 nickel oxide: An LSDA+U study.
 http://dx.doi.org/10.1103/PhysRevB.57.1505


 Lippert, G; Hutter, J; Parrinello, M. 
 MOLECULAR PHYSICS, 92 (3), 477-487 (1997). 
 A hybrid Gaussian and plane wave density functional scheme.
 http://dx.doi.org/10.1080/002689797170220


 Dudarev, SL; Manh, DN; Sutton, AP. 
 PHILOSOPHICAL MAGAZINE B, 75 (5), 613-628 (1997). 
 Effect of Mott-Hubbard correlations on the electronic
 structure and structural stability of uranium dioxide.
 http://dx.doi.org/10.1080/13642819708202343


 Goedecker, S; Teter, M; Hutter, J. 
 PHYSICAL REVIEW B, 54 (3), 1703-1710 (1996). 
 Separable dual-space Gaussian pseudopotentials.
 http://dx.doi.org/10.1103/PhysRevB.54.1703


 BECKE, AD. PHYSICAL REVIEW A, 38 (6), 3098-3100 (1988). 
 DENSITY-FUNCTIONAL EXCHANGE-ENERGY APPROXIMATION WITH CORRECT
 ASYMPTOTIC-BEHAVIOR.
 http://dx.doi.org/10.1103/PhysRevA.38.3098


 LEE, CT; YANG, WT; PARR, RG. 
 PHYSICAL REVIEW B, 37 (2), 785-789 (1988). 
 DEVELOPMENT OF THE COLLE-SALVETTI CORRELATION-ENERGY FORMULA INTO A
 FUNCTIONAL OF THE ELECTRON-DENSITY.
 http://dx.doi.org/10.1103/PhysRevB.37.785


 -------------------------------------------------------------------------------
 -                                                                             -
 -                                T I M I N G                                  -
 -                                                                             -
 -------------------------------------------------------------------------------
 SUBROUTINE                       CALLS  ASD         SELF TIME        TOTAL TIME
                                MAXIMUM       AVERAGE  MAXIMUM  AVERAGE  MAXIMUM
 CP2K                                 1  1.0    1.139    1.587  190.266  190.267
 qs_ks_update_qs_env                  8  3.5    0.000    0.000  168.710  168.829
 rebuild_ks_matrix                    6  4.0    0.000    0.000  168.709  168.827
 qs_ks_build_kohn_sham_matrix         6  5.0    0.211    0.330  168.708  168.827
 hfx_ks_matrix                        4  5.0    0.414    0.718  155.035  155.036
 integrate_four_center                4  6.0    0.013    0.497  154.621  155.001
 integrate_four_center_main           4  7.0    0.001    0.001  140.625  152.006
 integrate_four_center_bin          256  8.0  140.624  152.005  140.624  152.005
 qs_energies                          2  2.0    0.000    0.000   22.549   22.730
 mp_sync                            180 10.8   11.758   22.393   11.758   22.393
 pw_transfer                        276  7.6    0.015    0.017   19.549   19.832
 fft_wrap_pw1pw2                    248  8.7    0.002    0.002   19.193   19.474
 fft_wrap_pw1pw2_330                 68 10.4    1.129    1.209   17.784   18.092
 scf_env_do_scf                       2  3.0    0.000    0.000   15.916   15.916
 fft3d_ps                           248 10.7    7.751    8.866   15.498   15.823
 qs_rho_update_rho                    8  3.5    0.000    0.000   15.427   15.428
 calculate_rho_elec                  16  4.5    0.437    1.878   15.427   15.428
 density_rs2pw                       16  5.5    0.001    0.002   13.916   14.401
 init_scf_loop                        2  4.0    0.000    0.000   12.329   12.329
 qs_vxc_create                        6  6.0    0.000    0.000    8.555    8.574
 xc_vxc_pw_create                     2  9.0    0.173    0.222    8.555    8.574
 mp_alltoall_z22v                   248 12.7    5.706    6.152    5.706    6.152
 rs_pw_transfer                     208  7.4    0.002    0.003    5.533    5.926
 init_scf_run                         2  3.0    0.000    0.000    4.839    4.839
 scf_env_initial_rho_setup            2  4.0    0.000    0.000    4.839    4.839
 x_to_yz                             42 13.0    1.177    1.333    4.142    4.249
 xc_rho_set_and_dset_create           2 10.0    0.193    0.235    3.923    4.007
 yz_to_x                             66 11.4    0.795    0.856    3.530    3.822
 -------------------------------------------------------------------------------

 The number of warnings for this run is : 4
 
 -------------------------------------------------------------------------------
  **** **** ******  **  PROGRAM ENDED AT                 2019-08-09 14:11:17.918
 ***** ** ***  *** **   PROGRAM RAN ON            cpn-u25-21.cbls.ccr.buffalo.ed
 **    ****   ******    PROGRAM RAN BY                                  pavankum
 ***** **    ** ** **   PROGRAM PROCESS ID                                401492
  **** **  *******  **  PROGRAM STOPPED IN /projects/academic/mdupuis2/pavan/VAB
                                           _calculation/results_for_paper/3.1D_F
                                           e_7units/blyp_plusU5/mixed
