 DBCSR| Multiplication driver                                               BLAS
 DBCSR| Multrec recursion limit                                              512
 DBCSR| Multiplication stack size                                           1000
 DBCSR| Maximum elements for images                                    UNLIMITED
 DBCSR| Multiplicative factor virtual images                                   1
 DBCSR| Multiplication size stacks                                             3
 DBCSR| Number of 3D layers                                               SINGLE
 DBCSR| Use MPI memory allocation                                              T
 DBCSR| Use RMA algorithm                                                      F
 DBCSR| Use Communication thread                                               T
 DBCSR| Communication thread load                                             87


  **** **** ******  **  PROGRAM STARTED AT               2019-08-06 15:01:02.573
 ***** ** ***  *** **   PROGRAM STARTED ON        cpn-p28-29.cbls.ccr.buffalo.ed
 **    ****   ******    PROGRAM STARTED BY                              pavankum
 ***** **    ** ** **   PROGRAM PROCESS ID                                108463
  **** **  *******  **  PROGRAM STARTED IN /projects/academic/mdupuis2/pavan/VAB
                                           _calculation/results_for_paper/3.1D_F
                                           e_7units/blyp_plusU6/point_0.8

 CP2K| version string:                                          CP2K version 6.1
 CP2K| source code revision number:                                    svn:18464
 CP2K| cp2kflags: libint fftw3 libxc parallel mpi3 scalapack libderiv_max_am1=5 
 CP2K|            libint_max_am=6
 CP2K| is freely available from                            https://www.cp2k.org/
 CP2K| Program compiled at                          Fri Nov 30 14:17:09 EST 2018
 CP2K| Program compiled on                       srv-p22-12.cbls.ccr.buffalo.edu
 CP2K| Program compiled for                                                local
 CP2K| Data directory path    /projects/academic/mdupuis2/pavan/cp2k/cp2k-6.1/da
 CP2K| Input file name                                                 input.inp

 GLOBAL| Force Environment number                                              1
 GLOBAL| Basis set file name            /projects/academic/mdupuis2/pavan/BASIS_
 GLOBAL| Potential file name            /projects/academic/mdupuis2/pavan/POTENT
 GLOBAL| MM Potential file name                                     MM_POTENTIAL
 GLOBAL| Coordinate file name                             intermediate_point.xyz
 GLOBAL| Method name                                                        CP2K
 GLOBAL| Project name                                                      p_fe_
 GLOBAL| Preferred FFT library                                             FFTW3
 GLOBAL| Preferred diagonalization lib.                                       SL
 GLOBAL| Run type                                                         ENERGY
 GLOBAL| All-to-all communication in single precision                          F
 GLOBAL| FFTs using library dependent lengths                                  T
 GLOBAL| Global print level                                               MEDIUM
 GLOBAL| Total number of message passing processes                            40
 GLOBAL| Number of threads for this process                                    1
 GLOBAL| This output is from process                                           0
 GLOBAL| CPU model name :  Intel(R) Xeon(R) CPU E5-2650 v3 @ 2.30GHz

 MEMORY| system memory details [Kb]
 MEMORY|                        rank 0           min           max       average
 MEMORY| MemTotal             65684716      65684716      65684716      65684716
 MEMORY| MemFree              60411580      60411580      60533352      60472466
 MEMORY| Buffers                507228        506200        507228        506714
 MEMORY| Cached                 706920        706440        706920        706680
 MEMORY| Slab                   424932        424932        425124        425028
 MEMORY| SReclaimable           252768        252132        252768        252450
 MEMORY| MemLikelyFree        61878496      61878496      61998124      61938310


 *** Fundamental physical constants (SI units) ***

 *** Literature: B. J. Mohr and B. N. Taylor,
 ***             CODATA recommended values of the fundamental physical
 ***             constants: 2006, Web Version 5.1
 ***             http://physics.nist.gov/constants

 Speed of light in vacuum [m/s]                             2.99792458000000E+08
 Magnetic constant or permeability of vacuum [N/A**2]       1.25663706143592E-06
 Electric constant or permittivity of vacuum [F/m]          8.85418781762039E-12
 Planck constant (h) [J*s]                                  6.62606896000000E-34
 Planck constant (h-bar) [J*s]                              1.05457162825177E-34
 Elementary charge [C]                                      1.60217648700000E-19
 Electron mass [kg]                                         9.10938215000000E-31
 Electron g factor [ ]                                     -2.00231930436220E+00
 Proton mass [kg]                                           1.67262163700000E-27
 Fine-structure constant                                    7.29735253760000E-03
 Rydberg constant [1/m]                                     1.09737315685270E+07
 Avogadro constant [1/mol]                                  6.02214179000000E+23
 Boltzmann constant [J/K]                                   1.38065040000000E-23
 Atomic mass unit [kg]                                      1.66053878200000E-27
 Bohr radius [m]                                            5.29177208590000E-11

 *** Conversion factors ***

 [u] -> [a.u.]                                              1.82288848426455E+03
 [Angstrom] -> [Bohr] = [a.u.]                              1.88972613288564E+00
 [a.u.] = [Bohr] -> [Angstrom]                              5.29177208590000E-01
 [a.u.] -> [s]                                              2.41888432650478E-17
 [a.u.] -> [fs]                                             2.41888432650478E-02
 [a.u.] -> [J]                                              4.35974393937059E-18
 [a.u.] -> [N]                                              8.23872205491840E-08
 [a.u.] -> [K]                                              3.15774647902944E+05
 [a.u.] -> [kJ/mol]                                         2.62549961709828E+03
 [a.u.] -> [kcal/mol]                                       6.27509468713739E+02
 [a.u.] -> [Pa]                                             2.94210107994716E+13
 [a.u.] -> [bar]                                            2.94210107994716E+08
 [a.u.] -> [atm]                                            2.90362800883016E+08
 [a.u.] -> [eV]                                             2.72113838565563E+01
 [a.u.] -> [Hz]                                             6.57968392072181E+15
 [a.u.] -> [1/cm] (wave numbers)                            2.19474631370540E+05
 [a.u./Bohr**2] -> [1/cm]                                   5.14048714338585E+03
 

 CELL_TOP| Volume [angstrom^3]:                                        26196.625
 CELL_TOP| Vector a [angstrom    21.385     0.000     0.000    |a| =      21.385
 CELL_TOP| Vector b [angstrom     0.000    35.000     0.000    |b| =      35.000
 CELL_TOP| Vector c [angstrom     0.000     0.000    35.000    |c| =      35.000
 CELL_TOP| Angle (b,c), alpha [degree]:                                   90.000
 CELL_TOP| Angle (a,c), beta  [degree]:                                   90.000
 CELL_TOP| Angle (a,b), gamma [degree]:                                   90.000
 CELL_TOP| Numerically orthorhombic:                                         YES

 CELL| Volume [angstrom^3]:                                            26196.625
 CELL| Vector a [angstrom]:      21.385     0.000     0.000    |a| =      21.385
 CELL| Vector b [angstrom]:       0.000    35.000     0.000    |b| =      35.000
 CELL| Vector c [angstrom]:       0.000     0.000    35.000    |c| =      35.000
 CELL| Angle (b,c), alpha [degree]:                                       90.000
 CELL| Angle (a,c), beta  [degree]:                                       90.000
 CELL| Angle (a,b), gamma [degree]:                                       90.000
 CELL| Numerically orthorhombic:                                             YES

 CELL_REF| Volume [angstrom^3]:                                        26196.625
 CELL_REF| Vector a [angstrom    21.385     0.000     0.000    |a| =      21.385
 CELL_REF| Vector b [angstrom     0.000    35.000     0.000    |b| =      35.000
 CELL_REF| Vector c [angstrom     0.000     0.000    35.000    |c| =      35.000
 CELL_REF| Angle (b,c), alpha [degree]:                                   90.000
 CELL_REF| Angle (a,c), beta  [degree]:                                   90.000
 CELL_REF| Angle (a,b), gamma [degree]:                                   90.000
 CELL_REF| Numerically orthorhombic:                                         YES

 *******************************************************************************
 *******************************************************************************
 **                                                                           **
 **     #####                         ##              ##                      **
 **    ##   ##            ##          ##              ##                      **
 **   ##     ##                       ##            ######                    **
 **   ##     ##  ##   ##  ##   #####  ##  ##   ####   ##    #####    #####    **
 **   ##     ##  ##   ##  ##  ##      ## ##   ##      ##   ##   ##  ##   ##   **
 **   ##  ## ##  ##   ##  ##  ##      ####     ###    ##   ######   ######    **
 **    ##  ###   ##   ##  ##  ##      ## ##      ##   ##   ##       ##        **
 **     #######   #####   ##   #####  ##  ##  ####    ##    #####   ##        **
 **           ##                                                    ##        **
 **                                                                           **
 **                                                ... make the atoms dance   **
 **                                                                           **
 **            Copyright (C) by CP2K developers group (2000 - 2018)           **
 **                                                                           **
 *******************************************************************************

 DFT| Spin unrestricted (spin-polarized) Kohn-Sham calculation               UKS
 DFT| Multiplicity                                                            35
 DFT| Number of spin states                                                    2
 DFT| Charge                                                                   6
 DFT| Self-interaction correction (SIC)                                       NO
 DFT| Cutoffs: density                                              1.000000E-10
 DFT|          gradient                                             1.000000E-10
 DFT|          tau                                                  1.000000E-10
 DFT|          cutoff_smoothing_range                               0.000000E+00
 DFT| XC density smoothing                                                  NONE
 DFT| XC derivatives                                                          PW

 DFT+U| Method                                                          MULLIKEN
 DFT+U| Check atomic kind information for details
 FUNCTIONAL| ROUTINE=NEW
 FUNCTIONAL| BECKE88:
 FUNCTIONAL| A. Becke, Phys. Rev. A 38, 3098 (1988) {LSD version}               
 FUNCTIONAL| LYP:
 FUNCTIONAL| C. Lee, W. Yang, R.G. Parr, Phys. Rev. B, 37, 785 (1988) {LSD versi
 FUNCTIONAL| on}                                                                

 QS| Method:                                                                 GPW
 QS| Density plane wave grid type                        NON-SPHERICAL FULLSPACE
 QS| Number of grid levels:                                                   10
 QS| Density cutoff [a.u.]:                                                325.0
 QS| Multi grid cutoff [a.u.]: 1) grid level                               325.0
 QS|                           2) grid level                               108.3
 QS|                           3) grid level                                36.1
 QS|                           4) grid level                                12.0
 QS|                           5) grid level                                 4.0
 QS|                           6) grid level                                 1.3
 QS|                           7) grid level                                 0.4
 QS|                           8) grid level                                 0.1
 QS|                           9) grid level                                 0.0
 QS|                          10) grid level                                 0.0
 QS| Grid level progression factor:                                          3.0
 QS| Relative density cutoff [a.u.]:                                        30.0
 QS| Consistent realspace mapping and integration 
 QS| Interaction thresholds: eps_pgf_orb:                                1.0E-10
 QS|                         eps_filter_matrix:                          0.0E+00
 QS|                         eps_core_charge:                            1.0E-14
 QS|                         eps_rho_gspace:                             1.0E-12
 QS|                         eps_rho_rspace:                             1.0E-12
 QS|                         eps_gvg_rspace:                             1.0E-06
 QS|                         eps_ppl:                                    1.0E-02
 QS|                         eps_ppnl:                                   1.0E-08


 ATOMIC KIND INFORMATION

  1. Atomic kind: Fe                                    Number of atoms:       7

     Orbital Basis Set                                                   mod-DZV

       Number of orbital shell sets:                                           1
       Number of orbital shells:                                               7
       Number of primitive Cartesian functions:                                6
       Number of Cartesian basis functions:                                   21
       Number of spherical basis functions:                                   19
       Norm type:                                                              2

       Normalised Cartesian orbitals:

                        Set   Shell   Orbital            Exponent    Coefficient

                          1       1    2s                8.424366      -0.545589
                                                         4.825220      -0.832336
                                                         2.198939       0.958990
                                                         0.891661       0.416271
                                                         0.316231       0.012631
                                                         0.103474      -0.013505

                          1       2    3s                8.424366      -0.106056
                                                         4.825220      -0.104587
                                                         2.198939       0.052318
                                                         0.891661      -0.169042
                                                         0.316231       0.061854
                                                         0.103474       0.122891

                          1       3    4s                8.424366      -0.333477
                                                         4.825220      -0.289267
                                                         2.198939      -0.125861
                                                         0.891661      -1.004000
                                                         0.316231       0.780774
                                                         0.103474      -0.187846

                          1       4    3px               8.424366      -1.658234
                                                         4.825220       1.618912
                                                         2.198939       1.969078
                                                         0.891661       0.523780
                                                         0.316231       0.024574
                                                         0.103474      -0.000798
                          1       4    3py               8.424366      -1.658234
                                                         4.825220       1.618912
                                                         2.198939       1.969078
                                                         0.891661       0.523780
                                                         0.316231       0.024574
                                                         0.103474      -0.000798
                          1       4    3pz               8.424366      -1.658234
                                                         4.825220       1.618912
                                                         2.198939       1.969078
                                                         0.891661       0.523780
                                                         0.316231       0.024574
                                                         0.103474      -0.000798

                          1       5    4px               8.424366      -0.105249
                                                         4.825220      -0.126123
                                                         2.198939      -0.349657
                                                         0.891661      -0.133470
                                                         0.316231       0.170554
                                                         0.103474       0.054381
                          1       5    4py               8.424366      -0.105249
                                                         4.825220      -0.126123
                                                         2.198939      -0.349657
                                                         0.891661      -0.133470
                                                         0.316231       0.170554
                                                         0.103474       0.054381
                          1       5    4pz               8.424366      -0.105249
                                                         4.825220      -0.126123
                                                         2.198939      -0.349657
                                                         0.891661      -0.133470
                                                         0.316231       0.170554
                                                         0.103474       0.054381

                          1       6    4dx2              8.424366       7.918298
                                                         4.825220       5.112663
                                                         2.198939       2.118663
                                                         0.891661       0.465004
                                                         0.316231       0.065856
                                                         0.103474       0.002769
                          1       6    4dxy              8.424366      13.714895
                                                         4.825220       8.855393
                                                         2.198939       3.669632
                                                         0.891661       0.805411
                                                         0.316231       0.114066
                                                         0.103474       0.004796
                          1       6    4dxz              8.424366      13.714895
                                                         4.825220       8.855393
                                                         2.198939       3.669632
                                                         0.891661       0.805411
                                                         0.316231       0.114066
                                                         0.103474       0.004796
                          1       6    4dy2              8.424366       7.918298
                                                         4.825220       5.112663
                                                         2.198939       2.118663
                                                         0.891661       0.465004
                                                         0.316231       0.065856
                                                         0.103474       0.002769
                          1       6    4dyz              8.424366      13.714895
                                                         4.825220       8.855393
                                                         2.198939       3.669632
                                                         0.891661       0.805411
                                                         0.316231       0.114066
                                                         0.103474       0.004796
                          1       6    4dz2              8.424366       7.918298
                                                         4.825220       5.112663
                                                         2.198939       2.118663
                                                         0.891661       0.465004
                                                         0.316231       0.065856
                                                         0.103474       0.002769

                          1       7    5dx2              8.424366      -4.223614
                                                         4.825220      -1.970584
                                                         2.198939      -1.543490
                                                         0.891661      -0.041381
                                                         0.316231       0.082821
                                                         0.103474       0.021964
                          1       7    5dxy              8.424366      -7.315513
                                                         4.825220      -3.413151
                                                         2.198939      -2.673404
                                                         0.891661      -0.071673
                                                         0.316231       0.143450
                                                         0.103474       0.038042
                          1       7    5dxz              8.424366      -7.315513
                                                         4.825220      -3.413151
                                                         2.198939      -2.673404
                                                         0.891661      -0.071673
                                                         0.316231       0.143450
                                                         0.103474       0.038042
                          1       7    5dy2              8.424366      -4.223614
                                                         4.825220      -1.970584
                                                         2.198939      -1.543490
                                                         0.891661      -0.041381
                                                         0.316231       0.082821
                                                         0.103474       0.021964
                          1       7    5dyz              8.424366      -7.315513
                                                         4.825220      -3.413151
                                                         2.198939      -2.673404
                                                         0.891661      -0.071673
                                                         0.316231       0.143450
                                                         0.103474       0.038042
                          1       7    5dz2              8.424366      -4.223614
                                                         4.825220      -1.970584
                                                         2.198939      -1.543490
                                                         0.891661      -0.041381
                                                         0.316231       0.082821
                                                         0.103474       0.021964

     GTH Potential information for                                  GTH-BLYP-q16

       Description:                       Goedecker-Teter-Hutter pseudopotential
                                           Goedecker et al., PRB 54, 1703 (1996)
                                          Hartwigsen et al., PRB 58, 3641 (1998)
                                                      Krack, TCA 114, 145 (2005)

       Gaussian exponent of the core charge distribution:               3.858025
       Electronic configuration (s p d ...):                           4   6   6

       Parameters of the local part of the GTH pseudopotential:

                          rloc        C1          C2          C3          C4
                        0.360000    7.011025   -0.222747

       Parameters of the non-local part of the GTH pseudopotential:

                   l      r(l)      h(i,j,l)

                   0    0.276205    0.611496    7.992357
                                    7.992357  -10.318089
                   1    0.247130   -8.710556    8.684169
                                    8.684169  -10.275248
                   2    0.223534  -12.411504

     A DFT+U correction is applied to atoms of this atomic kind:
       Angular quantum momentum number L:                                      2
       U(eff) = (U - J) value in [eV]:                                     6.000

  2. Atomic kind: O                                     Number of atoms:      28

     Orbital Basis Set                                                   mod-DZV

       Number of orbital shell sets:                                           1
       Number of orbital shells:                                               4
       Number of primitive Cartesian functions:                                5
       Number of Cartesian basis functions:                                    8
       Number of spherical basis functions:                                    8
       Norm type:                                                              2

       Normalised Cartesian orbitals:

                        Set   Shell   Orbital            Exponent    Coefficient

                          1       1    2s               10.389228       0.396646
                                                         3.849621       0.208811
                                                         1.388401      -0.301641
                                                         0.496955      -0.274061
                                                         0.162492      -0.033677

                          1       2    3s               10.389228       0.303673
                                                         3.849621       0.240943
                                                         1.388401      -0.313066
                                                         0.496955      -0.043055
                                                         0.162492       0.213991

                          1       3    3px              10.389228      -1.530415
                                                         3.849621      -1.371928
                                                         1.388401      -0.761951
                                                         0.496955      -0.253695
                                                         0.162492      -0.035541
                          1       3    3py              10.389228      -1.530415
                                                         3.849621      -1.371928
                                                         1.388401      -0.761951
                                                         0.496955      -0.253695
                                                         0.162492      -0.035541
                          1       3    3pz              10.389228      -1.530415
                                                         3.849621      -1.371928
                                                         1.388401      -0.761951
                                                         0.496955      -0.253695
                                                         0.162492      -0.035541

                          1       4    4px              10.389228      -0.565392
                                                         3.849621      -0.038231
                                                         1.388401      -0.382373
                                                         0.496955       0.179070
                                                         0.162492       0.122714
                          1       4    4py              10.389228      -0.565392
                                                         3.849621      -0.038231
                                                         1.388401      -0.382373
                                                         0.496955       0.179070
                                                         0.162492       0.122714
                          1       4    4pz              10.389228      -0.565392
                                                         3.849621      -0.038231
                                                         1.388401      -0.382373
                                                         0.496955       0.179070
                                                         0.162492       0.122714

     GTH Potential information for                                   GTH-BLYP-q6

       Description:                       Goedecker-Teter-Hutter pseudopotential
                                           Goedecker et al., PRB 54, 1703 (1996)
                                          Hartwigsen et al., PRB 58, 3641 (1998)
                                                      Krack, TCA 114, 145 (2005)

       Gaussian exponent of the core charge distribution:               8.438331
       Electronic configuration (s p d ...):                               2   4

       Parameters of the local part of the GTH pseudopotential:

                          rloc        C1          C2          C3          C4
                        0.243420  -16.991892    2.566142

       Parameters of the non-local part of the GTH pseudopotential:

                   l      r(l)      h(i,j,l)

                   0    0.220831   18.388851
                   1    0.217201

  3. Atomic kind: H                                     Number of atoms:      42

     Orbital Basis Set                                                   mod-DZV

       Number of orbital shell sets:                                           1
       Number of orbital shells:                                               2
       Number of primitive Cartesian functions:                                5
       Number of Cartesian basis functions:                                    2
       Number of spherical basis functions:                                    2
       Norm type:                                                              2

       Normalised Cartesian orbitals:

                        Set   Shell   Orbital            Exponent    Coefficient

                          1       1    2s               10.068468      -0.133023
                                                         2.680223      -0.177618
                                                         0.791502      -0.258419
                                                         0.239116      -0.107525
                                                         0.082193      -0.014019

                          1       2    3s               10.068468       0.344673
                                                         2.680223       1.819821
                                                         0.791502      -0.999069
                                                         0.239116       0.017430
                                                         0.082193       0.082660

     GTH Potential information for                                   GTH-BLYP-q1

       Description:                       Goedecker-Teter-Hutter pseudopotential
                                           Goedecker et al., PRB 54, 1703 (1996)
                                          Hartwigsen et al., PRB 58, 3641 (1998)
                                                      Krack, TCA 114, 145 (2005)

       Gaussian exponent of the core charge distribution:              12.500000
       Electronic configuration (s p d ...):                                   1

       Parameters of the local part of the GTH pseudopotential:

                          rloc        C1          C2          C3          C4
                        0.200000   -4.195961    0.730498


 MOLECULE KIND INFORMATION


 All atoms are their own molecule, skipping detailed information


 TOTAL NUMBERS AND MAXIMUM NUMBERS

  Total number of            - Atomic kinds:                                   3
                             - Atoms:                                         77
                             - Shell sets:                                    77
                             - Shells:                                       245
                             - Primitive Cartesian functions:                392
                             - Cartesian basis functions:                    455
                             - Spherical basis functions:                    441

  Maximum angular momentum of- Orbital basis functions:                        2
                             - Local part of the GTH pseudopotential:          2
                             - Non-local part of the GTH pseudopotential:      3


 MODULE QUICKSTEP:  ATOMIC COORDINATES IN angstrom

  Atom  Kind  Element       X           Y           Z          Z(eff)       Mass

       1     1 Fe  26   18.338844   -0.000035   -0.000072     16.00      55.8450
       2     1 Fe  26   15.272056   -0.000560    0.001652     16.00      55.8450
       3     1 Fe  26   12.190327    0.000284    0.000217     16.00      55.8450
       4     1 Fe  26    9.163276    0.024299   -0.000479     16.00      55.8450
       5     1 Fe  26    6.149320    0.006334    0.000231     16.00      55.8450
       6     1 Fe  26    3.080216    0.000212   -0.000046     16.00      55.8450
       7     1 Fe  26    0.005866   -0.000407   -0.004045     16.00      55.8450
       8     2 O    8   18.331123   -0.020045    2.108547      6.00      15.9994
       9     2 O    8   18.328975    0.019920   -2.108553      6.00      15.9994
      10     2 O    8   19.860546   -1.252711   -0.016115      6.00      15.9994
      11     2 O    8   19.860557    1.251968    0.013896      6.00      15.9994
      12     2 O    8   15.309917   -0.020215    2.122910      6.00      15.9994
      13     2 O    8   15.308654    0.020024   -2.118972      6.00      15.9994
      14     2 O    8   16.817930   -1.250536   -0.015546      6.00      15.9994
      15     2 O    8   16.817997    1.249753    0.016741      6.00      15.9994
      16     2 O    8   12.273295    0.024947    2.157253      6.00      15.9994
      17     2 O    8   12.273398   -0.025755   -2.156403      6.00      15.9994
      18     2 O    8   13.777605   -1.248516   -0.011743      6.00      15.9994
      19     2 O    8   13.780929    1.247559    0.014241      6.00      15.9994
      20     2 O    8    9.183010    0.024302    2.213491      6.00      15.9994
      21     2 O    8    9.183092    0.029646   -2.214449      6.00      15.9994
      22     2 O    8   10.782622   -1.273380    0.018518      6.00      15.9994
      23     2 O    8   10.809002    1.305687   -0.018935      6.00      15.9994
      24     2 O    8    6.070496    0.025036    2.177824      6.00      15.9994
      25     2 O    8    6.070760   -0.011773   -2.177329      6.00      15.9994
      26     2 O    8    7.584868   -1.279133    0.016927      6.00      15.9994
      27     2 O    8    7.565995    1.319504   -0.017528      6.00      15.9994
      28     2 O    8    3.017789   -0.032305    2.129515      6.00      15.9994
      29     2 O    8    3.018913    0.031733   -2.130626      6.00      15.9994
      30     2 O    8    4.547491   -1.254301   -0.023263      6.00      15.9994
      31     2 O    8    4.537979    1.262651    0.024636      6.00      15.9994
      32     2 O    8   -0.020183   -0.020343    2.108978      6.00      15.9994
      33     2 O    8   -0.021968    0.020086   -2.118387      6.00      15.9994
      34     2 O    8    1.518095   -1.248660   -0.025853      6.00      15.9994
      35     2 O    8    1.516889    1.248145    0.015946      6.00      15.9994
      36     3 H    1   18.275042   -0.789311   -2.674320      1.00       1.0079
      37     3 H    1   18.269528    0.836617   -2.663564      1.00       1.0079
      38     3 H    1   18.269533   -0.836772    2.663736      1.00       1.0079
      39     3 H    1   18.273284    0.789193    2.674195      1.00       1.0079
      40     3 H    1   19.861868   -2.241241   -0.020490      1.00       1.0079
      41     3 H    1   19.862328    2.240492    0.018368      1.00       1.0079
      42     3 H    1   15.143743   -0.790120   -2.665903      1.00       1.0079
      43     3 H    1   15.118602    0.832223   -2.653403      1.00       1.0079
      44     3 H    1   15.122826   -0.832358    2.658851      1.00       1.0079
      45     3 H    1   15.138300    0.790076    2.667675      1.00       1.0079
      46     3 H    1   16.810161   -2.239050   -0.019544      1.00       1.0079
      47     3 H    1   16.809264    2.238252    0.020329      1.00       1.0079
      48     3 H    1   12.095055   -0.848124   -2.680779      1.00       1.0079
      49     3 H    1   12.038731    0.774841   -2.691933      1.00       1.0079
      50     3 H    1   12.048113   -0.775774    2.696951      1.00       1.0079
      51     3 H    1   12.084561    0.847754    2.677260      1.00       1.0079
      52     3 H    1   13.753795   -2.236294   -0.010511      1.00       1.0079
      53     3 H    1   13.755530    2.235138    0.012609      1.00       1.0079
      54     3 H    1    9.137566   -0.779111   -2.778997      1.00       1.0079
      55     3 H    1    9.139801    0.847805   -2.766124      1.00       1.0079
      56     3 H    1    9.142057   -0.793794    2.766012      1.00       1.0079
      57     3 H    1    9.134647    0.833153    2.776847      1.00       1.0079
      58     3 H    1   10.760242   -2.259997    0.020206      1.00       1.0079
      59     3 H    1   10.799213    2.292336   -0.021644      1.00       1.0079
      60     3 H    1    6.197911   -0.835044   -2.710923      1.00       1.0079
      61     3 H    1    6.266299    0.789524   -2.717547      1.00       1.0079
      62     3 H    1    6.257901   -0.775495    2.723149      1.00       1.0079
      63     3 H    1    6.205654    0.849719    2.706875      1.00       1.0079
      64     3 H    1    7.597251   -2.265532    0.016889      1.00       1.0079
      65     3 H    1    7.568673    2.305985   -0.017956      1.00       1.0079
      66     3 H    1    3.201673   -0.776593   -2.675793      1.00       1.0079
      67     3 H    1    3.221727    0.846130   -2.659635      1.00       1.0079
      68     3 H    1    3.214972   -0.847161    2.659923      1.00       1.0079
      69     3 H    1    3.206489    0.775640    2.673080      1.00       1.0079
      70     3 H    1    4.573122   -2.241608   -0.022587      1.00       1.0079
      71     3 H    1    4.562186    2.249848    0.022361      1.00       1.0079
      72     3 H    1    0.076722   -0.789014   -2.679762      1.00       1.0079
      73     3 H    1    0.078355    0.836429   -2.670617      1.00       1.0079
      74     3 H    1    0.074830   -0.836302    2.663174      1.00       1.0079
      75     3 H    1    0.077397    0.789033    2.670390      1.00       1.0079
      76     3 H    1    1.531061   -2.236981   -0.029502      1.00       1.0079
      77     3 H    1    1.530235    2.236431    0.021270      1.00       1.0079




 SCF PARAMETERS         Density guess:                                   RESTART
                        --------------------------------------------------------
                        max_scf:                                            1000
                        max_scf_history:                                       0
                        max_diis:                                              4
                        --------------------------------------------------------
                        eps_scf:                                        1.00E-06
                        eps_scf_history:                                0.00E+00
                        eps_diis:                                       1.00E-01
                        eps_eigval:                                     1.00E-05
                        --------------------------------------------------------
                        level_shift [a.u.]:                                 0.00
                        --------------------------------------------------------
                        Outer loop SCF in use 
                        No variables optimised in outer loop
                        eps_scf                                         1.00E-06
                        max_scf                                              500
                        No outer loop optimization
                        step_size                                       5.00E-01

 PW_GRID| Information for grid number                                          1
 PW_GRID| Grid distributed over                                    40 processors
 PW_GRID| Real space group dimensions                                    40    1
 PW_GRID| the grid is blocked:                                                NO
 PW_GRID| Cutoff [a.u.]                                                    325.0
 PW_GRID| spherical cutoff:                                                   NO
 PW_GRID|   Bounds   1           -165     164                Points:         330
 PW_GRID|   Bounds   2           -270     269                Points:         540
 PW_GRID|   Bounds   3           -270     269                Points:         540
 PW_GRID| Volume element (a.u.^3)  0.1837E-02     Volume (a.u.^3)    176783.5904
 PW_GRID| Grid span                                                    FULLSPACE
 PW_GRID|   Distribution                         Average         Max         Min
 PW_GRID|   G-Vectors                          2405700.0     2405700     2405700
 PW_GRID|   G-Rays                                7290.0        7290        7290
 PW_GRID|   Real Space Points                  2405700.0     2624400     2332800

 PW_GRID| Information for grid number                                          2
 PW_GRID| Grid distributed over                                    40 processors
 PW_GRID| Real space group dimensions                                    40    1
 PW_GRID| the grid is blocked:                                                NO
 PW_GRID| Cutoff [a.u.]                                                    108.3
 PW_GRID| spherical cutoff:                                                   NO
 PW_GRID|   Bounds   1            -94      94                Points:         189
 PW_GRID|   Bounds   2           -157     157                Points:         315
 PW_GRID|   Bounds   3           -157     157                Points:         315
 PW_GRID| Volume element (a.u.^3)  0.9427E-02     Volume (a.u.^3)    176783.5904
 PW_GRID| Grid span                                                    FULLSPACE
 PW_GRID|   Distribution                         Average         Max         Min
 PW_GRID|   G-Vectors                           468838.1      469098      468720
 PW_GRID|   G-Rays                                2480.6        2482        2480
 PW_GRID|   Real Space Points                   468838.1      496125      396900

 PW_GRID| Information for grid number                                          3
 PW_GRID| Grid distributed over                                    40 processors
 PW_GRID| Real space group dimensions                                    40    1
 PW_GRID| the grid is blocked:                                                NO
 PW_GRID| Cutoff [a.u.]                                                     36.1
 PW_GRID| spherical cutoff:                                                   NO
 PW_GRID|   Bounds   1            -55      54                Points:         110
 PW_GRID|   Bounds   2            -90      89                Points:         180
 PW_GRID|   Bounds   3            -90      89                Points:         180
 PW_GRID| Volume element (a.u.^3)  0.4960E-01     Volume (a.u.^3)    176783.5904
 PW_GRID| Grid span                                                    FULLSPACE
 PW_GRID|   Distribution                         Average         Max         Min
 PW_GRID|   G-Vectors                            89100.0       89320       88990
 PW_GRID|   G-Rays                                 810.0         812         809
 PW_GRID|   Real Space Points                    89100.0       97200       64800

 PW_GRID| Information for grid number                                          4
 PW_GRID| Grid distributed over                                    40 processors
 PW_GRID| Real space group dimensions                                    40    1
 PW_GRID| the grid is blocked:                                                NO
 PW_GRID| Cutoff [a.u.]                                                     12.0
 PW_GRID| spherical cutoff:                                                   NO
 PW_GRID|   Bounds   1            -31      31                Points:          63
 PW_GRID|   Bounds   2            -52      52                Points:         105
 PW_GRID|   Bounds   3            -52      52                Points:         105
 PW_GRID| Volume element (a.u.^3)  0.2545         Volume (a.u.^3)    176783.5904
 PW_GRID| Grid span                                                    FULLSPACE
 PW_GRID|   Distribution                         Average         Max         Min
 PW_GRID|   G-Vectors                            17364.4       17451       17262
 PW_GRID|   G-Rays                                 275.6         277         274
 PW_GRID|   Real Space Points                    17364.4       22050       11025

 PW_GRID| Information for grid number                                          5
 PW_GRID| Grid distributed over                                    40 processors
 PW_GRID| Real space group dimensions                                    40    1
 PW_GRID| the grid is blocked:                                                NO
 PW_GRID| Cutoff [a.u.]                                                      4.0
 PW_GRID| spherical cutoff:                                                   NO
 PW_GRID|   Bounds   1            -20      19                Points:          40
 PW_GRID|   Bounds   2            -30      29                Points:          60
 PW_GRID|   Bounds   3            -30      29                Points:          60
 PW_GRID| Volume element (a.u.^3)   1.228         Volume (a.u.^3)    176783.5904
 PW_GRID| Grid span                                                    FULLSPACE
 PW_GRID|   Distribution                         Average         Max         Min
 PW_GRID|   G-Vectors                             3600.0        3680        3560
 PW_GRID|   G-Rays                                  90.0          92          89
 PW_GRID|   Real Space Points                     3600.0        3600        3600

 PW_GRID| Information for grid number                                          6
 PW_GRID| Grid distributed over                                    40 processors
 PW_GRID| Real space group dimensions                                     5    8
 PW_GRID| the grid is blocked:                                                NO
 PW_GRID| Cutoff [a.u.]                                                      1.3
 PW_GRID| spherical cutoff:                                                   NO
 PW_GRID|   Bounds   1            -10      10                Points:          21
 PW_GRID|   Bounds   2            -17      17                Points:          35
 PW_GRID|   Bounds   3            -17      17                Points:          35
 PW_GRID| Volume element (a.u.^3)   6.872         Volume (a.u.^3)    176783.5904
 PW_GRID| Grid span                                                    FULLSPACE
 PW_GRID|   Distribution                         Average         Max         Min
 PW_GRID|   G-Vectors                              643.1         714         588
 PW_GRID|   G-Rays                                  30.6          34          28
 PW_GRID|   Real Space Points                      643.1         875         560

 PW_GRID| Information for grid number                                          7
 PW_GRID| Grid distributed over                                    40 processors
 PW_GRID| Real space group dimensions                                     5    8
 PW_GRID| the grid is blocked:                                                NO
 PW_GRID| Cutoff [a.u.]                                                      0.4
 PW_GRID| spherical cutoff:                                                   NO
 PW_GRID|   Bounds   1             -7       6                Points:          14
 PW_GRID|   Bounds   2            -10       9                Points:          20
 PW_GRID|   Bounds   3            -10       9                Points:          20
 PW_GRID| Volume element (a.u.^3)   31.57         Volume (a.u.^3)    176783.5904
 PW_GRID| Grid span                                                    FULLSPACE
 PW_GRID|   Distribution                         Average         Max         Min
 PW_GRID|   G-Vectors                              140.0         168         126
 PW_GRID|   G-Rays                                  10.0          12           9
 PW_GRID|   Real Space Points                      140.0         180          80

 PW_GRID| Information for grid number                                          8
 PW_GRID| Grid distributed over                                    40 processors
 PW_GRID| Real space group dimensions                                     5    8
 PW_GRID| the grid is blocked:                                                NO
 PW_GRID| Cutoff [a.u.]                                                      0.1
 PW_GRID| spherical cutoff:                                                   NO
 PW_GRID|   Bounds   1             -3       3                Points:           7
 PW_GRID|   Bounds   2             -5       5                Points:          11
 PW_GRID|   Bounds   3             -5       5                Points:          11
 PW_GRID| Volume element (a.u.^3)   208.7         Volume (a.u.^3)    176783.5904
 PW_GRID| Grid span                                                    FULLSPACE
 PW_GRID|   Distribution                         Average         Max         Min
 PW_GRID|   G-Vectors                               21.2          35          14
 PW_GRID|   G-Rays                                   3.0           5           2
 PW_GRID|   Real Space Points                       21.2          44          11

 PW_GRID| Information for grid number                                          9
 PW_GRID| Grid distributed over                                    40 processors
 PW_GRID| Real space group dimensions                                     5    8
 PW_GRID| the grid is blocked:                                                NO
 PW_GRID| Cutoff [a.u.]                                                      0.0
 PW_GRID| spherical cutoff:                                                   NO
 PW_GRID|   Bounds   1             -2       2                Points:           5
 PW_GRID|   Bounds   2             -3       3                Points:           7
 PW_GRID|   Bounds   3             -3       3                Points:           7
 PW_GRID| Volume element (a.u.^3)   721.6         Volume (a.u.^3)    176783.5904
 PW_GRID| Grid span                                                    FULLSPACE
 PW_GRID|   Distribution                         Average         Max         Min
 PW_GRID|   G-Vectors                                6.1          15           0
 PW_GRID|   G-Rays                                   1.2           3           0
 PW_GRID|   Real Space Points                        6.1           7           0

 PW_GRID| Information for grid number                                         10
 PW_GRID| Grid distributed over                                    40 processors
 PW_GRID| Real space group dimensions                                     5    8
 PW_GRID| the grid is blocked:                                                NO
 PW_GRID| Cutoff [a.u.]                                                      0.0
 PW_GRID| spherical cutoff:                                                   NO
 PW_GRID|   Bounds   1             -1       1                Points:           3
 PW_GRID|   Bounds   2             -1       1                Points:           3
 PW_GRID|   Bounds   3             -1       1                Points:           3
 PW_GRID| Volume element (a.u.^3)   6548.         Volume (a.u.^3)    176783.5904
 PW_GRID| Grid span                                                    FULLSPACE
 PW_GRID|   Distribution                         Average         Max         Min
 PW_GRID|   G-Vectors                                0.7           3           0
 PW_GRID|   G-Rays                                   0.2           1           0
 PW_GRID|   Real Space Points                        0.7           3           0

 POISSON| Solver                                                        PERIODIC
 POISSON| Periodicity                                                        XYZ

 RS_GRID| Information for grid number                                          1
 RS_GRID|   Bounds   1           -165     164                Points:         330
 RS_GRID|   Bounds   2           -270     269                Points:         540
 RS_GRID|   Bounds   3           -270     269                Points:         540
 RS_GRID| Real space distribution over                                  5 groups
 RS_GRID| Real space distribution along direction                              2
 RS_GRID| Border size                                                         25
 RS_GRID| Real space distribution over                                  8 groups
 RS_GRID| Real space distribution along direction                              3
 RS_GRID| Border size                                                         25
 RS_GRID|   Distribution                         Average         Max         Min
 RS_GRID|   Planes                                 158.0         158         158
 RS_GRID|   Distribution                         Average         Max         Min
 RS_GRID|   Planes                                 117.5         118         117

 RS_GRID| Information for grid number                                          2
 RS_GRID|   Bounds   1            -94      94                Points:         189
 RS_GRID|   Bounds   2           -157     157                Points:         315
 RS_GRID|   Bounds   3           -157     157                Points:         315
 RS_GRID| Real space distribution over                                  5 groups
 RS_GRID| Real space distribution along direction                              2
 RS_GRID| Border size                                                         28
 RS_GRID| Real space distribution over                                  8 groups
 RS_GRID| Real space distribution along direction                              3
 RS_GRID| Border size                                                         28
 RS_GRID|   Distribution                         Average         Max         Min
 RS_GRID|   Planes                                 119.0         119         119
 RS_GRID|   Distribution                         Average         Max         Min
 RS_GRID|   Planes                                  95.4          96          95

 RS_GRID| Information for grid number                                          3
 RS_GRID|   Bounds   1            -55      54                Points:         110
 RS_GRID|   Bounds   2            -90      89                Points:         180
 RS_GRID|   Bounds   3            -90      89                Points:         180
 RS_GRID| Real space fully replicated
 RS_GRID| Group size                                                           1

 RS_GRID| Information for grid number                                          4
 RS_GRID|   Bounds   1            -31      31                Points:          63
 RS_GRID|   Bounds   2            -52      52                Points:         105
 RS_GRID|   Bounds   3            -52      52                Points:         105
 RS_GRID| Real space fully replicated
 RS_GRID| Group size                                                           1

 RS_GRID| Information for grid number                                          5
 RS_GRID|   Bounds   1            -20      19                Points:          40
 RS_GRID|   Bounds   2            -30      29                Points:          60
 RS_GRID|   Bounds   3            -30      29                Points:          60
 RS_GRID| Real space fully replicated
 RS_GRID| Group size                                                           1

 RS_GRID| Information for grid number                                          6
 RS_GRID|   Bounds   1            -10      10                Points:          21
 RS_GRID|   Bounds   2            -17      17                Points:          35
 RS_GRID|   Bounds   3            -17      17                Points:          35
 RS_GRID| Real space fully replicated
 RS_GRID| Group size                                                           1

 RS_GRID| Information for grid number                                          7
 RS_GRID|   Bounds   1             -7       6                Points:          14
 RS_GRID|   Bounds   2            -10       9                Points:          20
 RS_GRID|   Bounds   3            -10       9                Points:          20
 RS_GRID| Real space fully replicated
 RS_GRID| Group size                                                           1

 RS_GRID| Information for grid number                                          8
 RS_GRID|   Bounds   1             -3       3                Points:           7
 RS_GRID|   Bounds   2             -5       5                Points:          11
 RS_GRID|   Bounds   3             -5       5                Points:          11
 RS_GRID| Real space fully replicated
 RS_GRID| Group size                                                           1

 RS_GRID| Information for grid number                                          9
 RS_GRID|   Bounds   1             -2       2                Points:           5
 RS_GRID|   Bounds   2             -3       3                Points:           7
 RS_GRID|   Bounds   3             -3       3                Points:           7
 RS_GRID| Real space fully replicated
 RS_GRID| Group size                                                           1

 RS_GRID| Information for grid number                                         10
 RS_GRID|   Bounds   1             -1       1                Points:           3
 RS_GRID|   Bounds   2             -1       1                Points:           3
 RS_GRID|   Bounds   3             -1       1                Points:           3
 RS_GRID| Real space fully replicated
 RS_GRID| Group size                                                           1

 Spin 1

 Number of electrons:                                                        175
 Number of occupied orbitals:                                                175
 Number of molecular orbitals:                                               175

 Spin 2

 Number of electrons:                                                        141
 Number of occupied orbitals:                                                141
 Number of molecular orbitals:                                               141

 Number of orbital functions:                                                441
 Number of independent orbital functions:                                    441

 Extrapolation method: initial_guess


 SCF WAVEFUNCTION OPTIMIZATION

  ----------------------------------- OT ---------------------------------------
  Minimizer      : CG                  : conjugate gradient
  Preconditioner : FULL_KINETIC        : inversion of T + eS
  Precond_solver : DEFAULT
  Line search    : 2PNT                : 2 energies, one gradient
  stepsize       :    0.15000000                  energy_gap     :    0.20000000
  eps_taylor     :   0.10000E-15                  max_taylor     :             4
  ----------------------------------- OT ---------------------------------------

  Step     Update method      Time    Convergence         Total energy    Change
  ------------------------------------------------------------------------------

 *** WARNING in dft_plus_u.F:1457 :: DFT+U energy contibution is negative ***
 *** possibly due to unphysical Mulliken charges. Check your input, if    ***
 *** this warning persists or try a different method!                     ***

     1 OT CG       0.15E+00   15.4     0.00020732     -1335.5328862325 -1.34E+03

 *** WARNING in dft_plus_u.F:1457 :: DFT+U energy contibution is negative ***
 *** possibly due to unphysical Mulliken charges. Check your input, if    ***
 *** this warning persists or try a different method!                     ***

     2 OT LS       0.60E+00    9.7                    -1335.5337136020

 *** WARNING in dft_plus_u.F:1457 :: DFT+U energy contibution is negative ***
 *** possibly due to unphysical Mulliken charges. Check your input, if    ***
 *** this warning persists or try a different method!                     ***

     3 OT CG       0.60E+00   19.1     0.00010901     -1335.5353423373 -2.46E-03

 *** WARNING in dft_plus_u.F:1457 :: DFT+U energy contibution is negative ***
 *** possibly due to unphysical Mulliken charges. Check your input, if    ***
 *** this warning persists or try a different method!                     ***

     4 OT LS       0.83E+00    9.7                    -1335.5359747903

 *** WARNING in dft_plus_u.F:1457 :: DFT+U energy contibution is negative ***
 *** possibly due to unphysical Mulliken charges. Check your input, if    ***
 *** this warning persists or try a different method!                     ***

     5 OT CG       0.83E+00   19.1     0.00012242     -1335.5360257085 -6.83E-04

 *** WARNING in dft_plus_u.F:1457 :: DFT+U energy contibution is negative ***
 *** possibly due to unphysical Mulliken charges. Check your input, if    ***
 *** this warning persists or try a different method!                     ***

     6 OT LS       0.39E+00    9.6                    -1335.5359375291

 *** WARNING in dft_plus_u.F:1457 :: DFT+U energy contibution is negative ***
 *** possibly due to unphysical Mulliken charges. Check your input, if    ***
 *** this warning persists or try a different method!                     ***

     7 OT CG       0.39E+00   19.1     0.00007108     -1335.5364356018 -4.10E-04

 *** WARNING in dft_plus_u.F:1457 :: DFT+U energy contibution is negative ***
 *** possibly due to unphysical Mulliken charges. Check your input, if    ***
 *** this warning persists or try a different method!                     ***

     8 OT LS       0.33E+00    9.6                    -1335.5365471739

 *** WARNING in dft_plus_u.F:1457 :: DFT+U energy contibution is negative ***
 *** possibly due to unphysical Mulliken charges. Check your input, if    ***
 *** this warning persists or try a different method!                     ***

     9 OT CG       0.33E+00   19.0     0.00004828     -1335.5365514757 -1.16E-04

 *** WARNING in dft_plus_u.F:1457 :: DFT+U energy contibution is negative ***
 *** possibly due to unphysical Mulliken charges. Check your input, if    ***
 *** this warning persists or try a different method!                     ***

    10 OT LS       0.45E+00    9.5                    -1335.5366192748

 *** WARNING in dft_plus_u.F:1457 :: DFT+U energy contibution is negative ***
 *** possibly due to unphysical Mulliken charges. Check your input, if    ***
 *** this warning persists or try a different method!                     ***

    11 OT CG       0.45E+00   19.2     0.00004375     -1335.5366245285 -7.31E-05

 *** WARNING in dft_plus_u.F:1457 :: DFT+U energy contibution is negative ***
 *** possibly due to unphysical Mulliken charges. Check your input, if    ***
 *** this warning persists or try a different method!                     ***

    12 OT LS       0.49E+00    9.6                    -1335.5366893350

 *** WARNING in dft_plus_u.F:1457 :: DFT+U energy contibution is negative ***
 *** possibly due to unphysical Mulliken charges. Check your input, if    ***
 *** this warning persists or try a different method!                     ***

    13 OT CG       0.49E+00   19.2     0.00003156     -1335.5366897579 -6.52E-05

 *** WARNING in dft_plus_u.F:1457 :: DFT+U energy contibution is negative ***
 *** possibly due to unphysical Mulliken charges. Check your input, if    ***
 *** this warning persists or try a different method!                     ***

    14 OT LS       0.34E+00    9.6                    -1335.5367086888

 *** WARNING in dft_plus_u.F:1457 :: DFT+U energy contibution is negative ***
 *** possibly due to unphysical Mulliken charges. Check your input, if    ***
 *** this warning persists or try a different method!                     ***

    15 OT CG       0.34E+00   19.4     0.00002282     -1335.5367132886 -2.35E-05

 *** WARNING in dft_plus_u.F:1457 :: DFT+U energy contibution is negative ***
 *** possibly due to unphysical Mulliken charges. Check your input, if    ***
 *** this warning persists or try a different method!                     ***

    16 OT LS       0.55E+00    9.9                    -1335.5367302856

 *** WARNING in dft_plus_u.F:1457 :: DFT+U energy contibution is negative ***
 *** possibly due to unphysical Mulliken charges. Check your input, if    ***
 *** this warning persists or try a different method!                     ***

    17 OT CG       0.55E+00   19.2     0.00002494     -1335.5367331787 -1.99E-05

 *** WARNING in dft_plus_u.F:1457 :: DFT+U energy contibution is negative ***
 *** possibly due to unphysical Mulliken charges. Check your input, if    ***
 *** this warning persists or try a different method!                     ***

    18 OT LS       0.64E+00    9.6                    -1335.5367603029

 *** WARNING in dft_plus_u.F:1457 :: DFT+U energy contibution is negative ***
 *** possibly due to unphysical Mulliken charges. Check your input, if    ***
 *** this warning persists or try a different method!                     ***

    19 OT CG       0.64E+00   19.2     0.00002633     -1335.5367608620 -2.77E-05

 *** WARNING in dft_plus_u.F:1457 :: DFT+U energy contibution is negative ***
 *** possibly due to unphysical Mulliken charges. Check your input, if    ***
 *** this warning persists or try a different method!                     ***

    20 OT LS       0.50E+00    9.6                    -1335.5367832928

 *** WARNING in dft_plus_u.F:1457 :: DFT+U energy contibution is negative ***
 *** possibly due to unphysical Mulliken charges. Check your input, if    ***
 *** this warning persists or try a different method!                     ***

    21 OT CG       0.50E+00   19.2     0.00002378     -1335.5367851054 -2.42E-05

 *** WARNING in dft_plus_u.F:1457 :: DFT+U energy contibution is negative ***
 *** possibly due to unphysical Mulliken charges. Check your input, if    ***
 *** this warning persists or try a different method!                     ***

    22 OT LS       0.57E+00    9.7                    -1335.5368072602

 *** WARNING in dft_plus_u.F:1457 :: DFT+U energy contibution is negative ***
 *** possibly due to unphysical Mulliken charges. Check your input, if    ***
 *** this warning persists or try a different method!                     ***

    23 OT CG       0.57E+00   19.2     0.00002484     -1335.5368075872 -2.25E-05

 *** WARNING in dft_plus_u.F:1457 :: DFT+U energy contibution is negative ***
 *** possibly due to unphysical Mulliken charges. Check your input, if    ***
 *** this warning persists or try a different method!                     ***

    24 OT LS       0.54E+00    9.6                    -1335.5368305377

 *** WARNING in dft_plus_u.F:1457 :: DFT+U energy contibution is negative ***
 *** possibly due to unphysical Mulliken charges. Check your input, if    ***
 *** this warning persists or try a different method!                     ***

    25 OT CG       0.54E+00   19.2     0.00002222     -1335.5368306331 -2.30E-05

 *** WARNING in dft_plus_u.F:1457 :: DFT+U energy contibution is negative ***
 *** possibly due to unphysical Mulliken charges. Check your input, if    ***
 *** this warning persists or try a different method!                     ***

    26 OT LS       0.43E+00    9.7                    -1335.5368443720

 *** WARNING in dft_plus_u.F:1457 :: DFT+U energy contibution is negative ***
 *** possibly due to unphysical Mulliken charges. Check your input, if    ***
 *** this warning persists or try a different method!                     ***

    27 OT CG       0.43E+00   19.1     0.00001637     -1335.5368453243 -1.47E-05

 *** WARNING in dft_plus_u.F:1457 :: DFT+U energy contibution is negative ***
 *** possibly due to unphysical Mulliken charges. Check your input, if    ***
 *** this warning persists or try a different method!                     ***

    28 OT LS       0.37E+00    9.7                    -1335.5368520914

 *** WARNING in dft_plus_u.F:1457 :: DFT+U energy contibution is negative ***
 *** possibly due to unphysical Mulliken charges. Check your input, if    ***
 *** this warning persists or try a different method!                     ***

    29 OT CG       0.37E+00   19.2     0.00001266     -1335.5368522506 -6.93E-06

 *** WARNING in dft_plus_u.F:1457 :: DFT+U energy contibution is negative ***
 *** possibly due to unphysical Mulliken charges. Check your input, if    ***
 *** this warning persists or try a different method!                     ***

    30 OT LS       0.47E+00    9.8                    -1335.5368572973

 *** WARNING in dft_plus_u.F:1457 :: DFT+U energy contibution is negative ***
 *** possibly due to unphysical Mulliken charges. Check your input, if    ***
 *** this warning persists or try a different method!                     ***

    31 OT CG       0.47E+00   19.2     0.00001107     -1335.5368575503 -5.30E-06

 *** WARNING in dft_plus_u.F:1457 :: DFT+U energy contibution is negative ***
 *** possibly due to unphysical Mulliken charges. Check your input, if    ***
 *** this warning persists or try a different method!                     ***

    32 OT LS       0.41E+00    9.8                    -1335.5368609877

 *** WARNING in dft_plus_u.F:1457 :: DFT+U energy contibution is negative ***
 *** possibly due to unphysical Mulliken charges. Check your input, if    ***
 *** this warning persists or try a different method!                     ***

    33 OT CG       0.41E+00   21.8     0.00000815     -1335.5368610685 -3.52E-06

 *** WARNING in dft_plus_u.F:1457 :: DFT+U energy contibution is negative ***
 *** possibly due to unphysical Mulliken charges. Check your input, if    ***
 *** this warning persists or try a different method!                     ***

    34 OT LS       0.45E+00    9.8                    -1335.5368631252

 *** WARNING in dft_plus_u.F:1457 :: DFT+U energy contibution is negative ***
 *** possibly due to unphysical Mulliken charges. Check your input, if    ***
 *** this warning persists or try a different method!                     ***

    35 OT CG       0.45E+00   20.9     0.00000705     -1335.5368631378 -2.07E-06

 *** WARNING in dft_plus_u.F:1457 :: DFT+U energy contibution is negative ***
 *** possibly due to unphysical Mulliken charges. Check your input, if    ***
 *** this warning persists or try a different method!                     ***

    36 OT LS       0.55E+00   10.1                    -1335.5368649763

 *** WARNING in dft_plus_u.F:1457 :: DFT+U energy contibution is negative ***
 *** possibly due to unphysical Mulliken charges. Check your input, if    ***
 *** this warning persists or try a different method!                     ***

    37 OT CG       0.55E+00   19.1     0.00000711     -1335.5368650427 -1.90E-06

 *** WARNING in dft_plus_u.F:1457 :: DFT+U energy contibution is negative ***
 *** possibly due to unphysical Mulliken charges. Check your input, if    ***
 *** this warning persists or try a different method!                     ***

    38 OT LS       0.50E+00    9.8                    -1335.5368668100

 *** WARNING in dft_plus_u.F:1457 :: DFT+U energy contibution is negative ***
 *** possibly due to unphysical Mulliken charges. Check your input, if    ***
 *** this warning persists or try a different method!                     ***

    39 OT CG       0.50E+00   19.2     0.00000634     -1335.5368668240 -1.78E-06

 *** WARNING in dft_plus_u.F:1457 :: DFT+U energy contibution is negative ***
 *** possibly due to unphysical Mulliken charges. Check your input, if    ***
 *** this warning persists or try a different method!                     ***

    40 OT LS       0.50E+00    9.8                    -1335.5368682235

 *** WARNING in dft_plus_u.F:1457 :: DFT+U energy contibution is negative ***
 *** possibly due to unphysical Mulliken charges. Check your input, if    ***
 *** this warning persists or try a different method!                     ***

    41 OT CG       0.50E+00   19.1     0.00000555     -1335.5368682236 -1.40E-06

 *** WARNING in dft_plus_u.F:1457 :: DFT+U energy contibution is negative ***
 *** possibly due to unphysical Mulliken charges. Check your input, if    ***
 *** this warning persists or try a different method!                     ***

    42 OT LS       0.52E+00    9.8                    -1335.5368693388

 *** WARNING in dft_plus_u.F:1457 :: DFT+U energy contibution is negative ***
 *** possibly due to unphysical Mulliken charges. Check your input, if    ***
 *** this warning persists or try a different method!                     ***

    43 OT CG       0.52E+00   19.1     0.00000509     -1335.5368693401 -1.12E-06

 *** WARNING in dft_plus_u.F:1457 :: DFT+U energy contibution is negative ***
 *** possibly due to unphysical Mulliken charges. Check your input, if    ***
 *** this warning persists or try a different method!                     ***

    44 OT LS       0.60E+00    9.7                    -1335.5368704055

 *** WARNING in dft_plus_u.F:1457 :: DFT+U energy contibution is negative ***
 *** possibly due to unphysical Mulliken charges. Check your input, if    ***
 *** this warning persists or try a different method!                     ***

    45 OT CG       0.60E+00   19.1     0.00000490     -1335.5368704264 -1.09E-06

 *** WARNING in dft_plus_u.F:1457 :: DFT+U energy contibution is negative ***
 *** possibly due to unphysical Mulliken charges. Check your input, if    ***
 *** this warning persists or try a different method!                     ***

    46 OT LS       0.38E+00    9.7                    -1335.5368708535

 *** WARNING in dft_plus_u.F:1457 :: DFT+U energy contibution is negative ***
 *** possibly due to unphysical Mulliken charges. Check your input, if    ***
 *** this warning persists or try a different method!                     ***

    47 OT CG       0.38E+00   19.2     0.00000386     -1335.5368710665 -6.40E-07

 *** WARNING in dft_plus_u.F:1457 :: DFT+U energy contibution is negative ***
 *** possibly due to unphysical Mulliken charges. Check your input, if    ***
 *** this warning persists or try a different method!                     ***

    48 OT LS       0.43E+00    9.8                    -1335.5368715085

 *** WARNING in dft_plus_u.F:1457 :: DFT+U energy contibution is negative ***
 *** possibly due to unphysical Mulliken charges. Check your input, if    ***
 *** this warning persists or try a different method!                     ***

    49 OT CG       0.43E+00   19.2     0.00000322     -1335.5368715141 -4.48E-07

 *** WARNING in dft_plus_u.F:1457 :: DFT+U energy contibution is negative ***
 *** possibly due to unphysical Mulliken charges. Check your input, if    ***
 *** this warning persists or try a different method!                     ***

    50 OT LS       0.51E+00    9.8                    -1335.5368718772

 *** WARNING in dft_plus_u.F:1457 :: DFT+U energy contibution is negative ***
 *** possibly due to unphysical Mulliken charges. Check your input, if    ***
 *** this warning persists or try a different method!                     ***

    51 OT CG       0.51E+00   19.1     0.00000282     -1335.5368718875 -3.73E-07

 *** WARNING in dft_plus_u.F:1457 :: DFT+U energy contibution is negative ***
 *** possibly due to unphysical Mulliken charges. Check your input, if    ***
 *** this warning persists or try a different method!                     ***

    52 OT LS       0.47E+00    9.6                    -1335.5368721473

 *** WARNING in dft_plus_u.F:1457 :: DFT+U energy contibution is negative ***
 *** possibly due to unphysical Mulliken charges. Check your input, if    ***
 *** this warning persists or try a different method!                     ***

    53 OT CG       0.47E+00   19.1     0.00000238     -1335.5368721496 -2.62E-07

 *** WARNING in dft_plus_u.F:1457 :: DFT+U energy contibution is negative ***
 *** possibly due to unphysical Mulliken charges. Check your input, if    ***
 *** this warning persists or try a different method!                     ***

    54 OT LS       0.49E+00    9.7                    -1335.5368723437

 *** WARNING in dft_plus_u.F:1457 :: DFT+U energy contibution is negative ***
 *** possibly due to unphysical Mulliken charges. Check your input, if    ***
 *** this warning persists or try a different method!                     ***

    55 OT CG       0.49E+00   19.1     0.00000226     -1335.5368723441 -1.94E-07

 *** WARNING in dft_plus_u.F:1457 :: DFT+U energy contibution is negative ***
 *** possibly due to unphysical Mulliken charges. Check your input, if    ***
 *** this warning persists or try a different method!                     ***

    56 OT LS       0.49E+00    9.7                    -1335.5368725161

 *** WARNING in dft_plus_u.F:1457 :: DFT+U energy contibution is negative ***
 *** possibly due to unphysical Mulliken charges. Check your input, if    ***
 *** this warning persists or try a different method!                     ***

    57 OT CG       0.49E+00   19.4     0.00000199     -1335.5368725162 -1.72E-07

 *** WARNING in dft_plus_u.F:1457 :: DFT+U energy contibution is negative ***
 *** possibly due to unphysical Mulliken charges. Check your input, if    ***
[...]
 flops    19 x    13 x     2             32823336     100.0%      0.0%      0.0%
 flops     2 x    13 x    19             32823336     100.0%      0.0%      0.0%
 flops     8 x    19 x    15             33069120     100.0%      0.0%      0.0%
 flops    19 x     8 x    15             33069120     100.0%      0.0%      0.0%
 flops    45 x    13 x    31             33187050     100.0%      0.0%      0.0%
 flops   112 x    13 x    31             34303360     100.0%      0.0%      0.0%
 flops    32 x    13 x    20             36541440     100.0%      0.0%      0.0%
 flops    19 x    15 x     2             37537920     100.0%      0.0%      0.0%
 flops     2 x    15 x    19             37537920     100.0%      0.0%      0.0%
 flops    45 x    32 x    13             38039040     100.0%      0.0%      0.0%
 flops    45 x    13 x    32             38039040     100.0%      0.0%      0.0%
 flops   112 x    15 x    31             39580800     100.0%      0.0%      0.0%
 flops    47 x    15 x    31             39994650     100.0%      0.0%      0.0%
 flops     8 x     8 x    13             49993216     100.0%      0.0%      0.0%
 flops    19 x    13 x    19             51970282     100.0%      0.0%      0.0%
 flops    32 x    15 x    31             54460800     100.0%      0.0%      0.0%
 flops    64 x    15 x    31             54460800     100.0%      0.0%      0.0%
 flops     8 x    13 x     2             55281408     100.0%      0.0%      0.0%
 flops     2 x    13 x     8             55281408     100.0%      0.0%      0.0%
 flops    47 x    15 x    32             57302400     100.0%      0.0%      0.0%
 flops    47 x    32 x    15             57302400     100.0%      0.0%      0.0%
 flops     8 x     8 x    15             57684480     100.0%      0.0%      0.0%
 flops    19 x    15 x    19             59435040     100.0%      0.0%      0.0%
 flops     8 x    15 x     2             63221760     100.0%      0.0%      0.0%
 flops     2 x    15 x     8             63221760     100.0%      0.0%      0.0%
 flops    32 x    13 x    31             70799040     100.0%      0.0%      0.0%
 flops    45 x    32 x    12             75893760     100.0%      0.0%      0.0%
 flops    64 x    32 x    15             78028800     100.0%      0.0%      0.0%
 flops    32 x    15 x    32             78028800     100.0%      0.0%      0.0%
 flops    32 x    32 x    15             78028800     100.0%      0.0%      0.0%
 flops    64 x    15 x    32             78028800     100.0%      0.0%      0.0%
 flops    32 x    13 x    32             81149952     100.0%      0.0%      0.0%
 flops    32 x    32 x    13             81149952     100.0%      0.0%      0.0%
 flops   107 x    32 x    12             84312576     100.0%      0.0%      0.0%
 flops   110 x    32 x    12             86676480     100.0%      0.0%      0.0%
 flops    19 x    13 x     8             87528896     100.0%      0.0%      0.0%
 flops     8 x    13 x    19             87528896     100.0%      0.0%      0.0%
 flops   107 x    32 x    13             90804480     100.0%      0.0%      0.0%
 flops   107 x    13 x    32             90804480     100.0%      0.0%      0.0%
 flops   110 x    13 x    32             93350400     100.0%      0.0%      0.0%
 flops   110 x    32 x    13             93350400     100.0%      0.0%      0.0%
 flops    47 x    32 x    12             99083520     100.0%      0.0%      0.0%
 flops    19 x    15 x     8            100101120     100.0%      0.0%      0.0%
 flops     8 x    15 x    19            100101120     100.0%      0.0%      0.0%
 flops   107 x    32 x    15            130968000     100.0%      0.0%      0.0%
 flops   107 x    15 x    32            130968000     100.0%      0.0%      0.0%
 flops   110 x    15 x    32            134640000     100.0%      0.0%      0.0%
 flops   110 x    32 x    15            134640000     100.0%      0.0%      0.0%
 flops    64 x    32 x    12            134922240     100.0%      0.0%      0.0%
 flops     8 x    13 x     8            147417088     100.0%      0.0%      0.0%
 flops     2 x     2 x    32            153957888     100.0%      0.0%      0.0%
 flops     8 x    15 x     8            168591360     100.0%      0.0%      0.0%
 flops    45 x    32 x    20            168652800     100.0%      0.0%      0.0%
 flops   112 x    32 x    12            176504832     100.0%      0.0%      0.0%
 flops   107 x    32 x    20            187361280     100.0%      0.0%      0.0%
 flops   112 x    13 x    32            190095360     100.0%      0.0%      0.0%
 flops   112 x    32 x    13            190095360     100.0%      0.0%      0.0%
 flops   110 x    32 x    20            192614400     100.0%      0.0%      0.0%
 flops    47 x    32 x    20            220185600     100.0%      0.0%      0.0%
 flops    19 x     2 x    32            238097664     100.0%      0.0%      0.0%
 flops     2 x    19 x    32            238097664     100.0%      0.0%      0.0%
 flops   112 x    15 x    32            274176000     100.0%      0.0%      0.0%
 flops   112 x    32 x    15            274176000     100.0%      0.0%      0.0%
 flops    32 x    32 x    12            296828928     100.0%      0.0%      0.0%
 flops    64 x    32 x    20            299827200     100.0%      0.0%      0.0%
 flops    45 x    32 x    31            326764800     100.0%      0.0%      0.0%
 flops   107 x    32 x    31            363012480     100.0%      0.0%      0.0%
 flops   110 x    32 x    31            373190400     100.0%      0.0%      0.0%
 flops    45 x    32 x    32            374538240     100.0%      0.0%      0.0%
 flops   112 x    32 x    20            392232960     100.0%      0.0%      0.0%
 flops     8 x     2 x    32            401006592     100.0%      0.0%      0.0%
 flops     2 x     8 x    32            401006592     100.0%      0.0%      0.0%
 flops    47 x    32 x    31            426609600     100.0%      0.0%      0.0%
 flops    19 x    19 x    32            430843392     100.0%      0.0%      0.0%
 flops     2 x    32 x     2            457003008     100.0%      0.0%      0.0%
 flops    64 x    32 x    31            580915200     100.0%      0.0%      0.0%
 flops    47 x    32 x    32            611225600     100.0%      0.0%      0.0%
 flops     8 x    19 x    32            634927104     100.0%      0.0%      0.0%
 flops    19 x     8 x    32            634927104     100.0%      0.0%      0.0%
 flops    32 x    32 x    20            659619840     100.0%      0.0%      0.0%
 flops    19 x    32 x     2            723588096     100.0%      0.0%      0.0%
 flops     2 x    32 x    19            723588096     100.0%      0.0%      0.0%
 flops   112 x    32 x    31            759951360     100.0%      0.0%      0.0%
 flops    64 x    32 x    32            832307200     100.0%      0.0%      0.0%
 flops     8 x     8 x    32           1107542016     100.0%      0.0%      0.0%
 flops    19 x    32 x    19           1145681152     100.0%      0.0%      0.0%
 flops     8 x    32 x     2           1218674688     100.0%      0.0%      0.0%
 flops     2 x    32 x     8           1218674688     100.0%      0.0%      0.0%
 flops    32 x    32 x    31           1278013440     100.0%      0.0%      0.0%
 flops    32 x    32 x    32           1631322112     100.0%      0.0%      0.0%
 flops    19 x    32 x     8           1929568256     100.0%      0.0%      0.0%
 flops     8 x    32 x    19           1929568256     100.0%      0.0%      0.0%
 flops   107 x    32 x    32           2291066880     100.0%      0.0%      0.0%
 flops   110 x    32 x    32           2355302400     100.0%      0.0%      0.0%
 flops     8 x    32 x     8           3249799168     100.0%      0.0%      0.0%
 flops   112 x    32 x    32           4796252160     100.0%      0.0%      0.0%
 flops inhomo. stacks                  7210910496     100.0%      0.0%      0.0%
 flops total                        49.078608E+09     100.0%      0.0%      0.0%
 flops max/rank                      2.584880E+09     100.0%      0.0%      0.0%
 matmuls inhomo. stacks                     77792     100.0%      0.0%      0.0%
 matmuls total                           10098138     100.0%      0.0%      0.0%
 number of processed stacks               1165313     100.0%      0.0%      0.0%
 average stack size                                     8.7       0.0       0.0
 marketing flops                    51.334504E+09
 -------------------------------------------------------------------------------
 # multiplications                           1837
 max memory usage/rank               1.474793E+09
 # max total images/rank                        5
 # max 3D layers                                1
 # MPI messages exchanged                 4629240
 MPI messages size (bytes):
  total size                        16.225468E+09
  min size                           0.000000E+00
  max size                          34.944000E+03
  average size                       3.504996E+03
 MPI breakdown and total messages size (bytes):
             size <=      128             2904696                        0
       128 < size <=     8192             1230732               6961585320
      8192 < size <=    32768              493704               9260199936
     32768 < size <=   131072                 108                  3714984
    131072 < size <=  4194304                   0                        0
   4194304 < size <= 16777216                   0                        0
  16777216 < size                               0                        0
 -------------------------------------------------------------------------------

 *** WARNING in dbcsr/mm/dbcsr_mm.F:268 :: Using a non-square number of ***
 *** MPI ranks might lead to poor performance.                          ***
 *** Used ranks: 40                                                     ***
 *** Suggested: 36 81                                                   ***

 -------------------------------------------------------------------------------

 MEMORY| Estimated peak process memory [MiB]                                1407

 -------------------------------------------------------------------------------
 ----                             MULTIGRID INFO                            ----
 -------------------------------------------------------------------------------
 count for grid        1:        1213490          cutoff [a.u.]          325.00
 count for grid        2:         509184          cutoff [a.u.]          108.33
 count for grid        3:         312741          cutoff [a.u.]           36.11
 count for grid        4:         105427          cutoff [a.u.]           12.04
 count for grid        5:           3600          cutoff [a.u.]            4.01
 count for grid        6:              0          cutoff [a.u.]            1.34
 count for grid        7:              0          cutoff [a.u.]            0.45
 count for grid        8:              0          cutoff [a.u.]            0.15
 count for grid        9:              0          cutoff [a.u.]            0.05
 count for grid       10:              0          cutoff [a.u.]            0.02
 total gridlevel count  :        2144442

 -------------------------------------------------------------------------------
 -                                                                             -
 -                         MESSAGE PASSING PERFORMANCE                         -
 -                                                                             -
 -------------------------------------------------------------------------------

 ROUTINE             CALLS      AVE VOLUME [Bytes]
 MP_Group               31
 MP_Bcast             1060                 306143.
 MP_Allreduce        11146                    493.
 MP_Sync              1342
 MP_Alltoall          8872               20378345.
 MP_ISendRecv        69264                 123959.
 MP_Wait            268004
 MP_ISend           266374                  58250.
 MP_IRecv           268798                  57452.
 MP_Recv                72                  58212.
 MP_Memory          241572
 -------------------------------------------------------------------------------


 -------------------------------------------------------------------------------
 -                                                                             -
 -                           R E F E R E N C E S                               -
 -                                                                             -
 -------------------------------------------------------------------------------
 
 CP2K version 6.1, the CP2K developers group (2018).
 CP2K is freely available from https://www.cp2k.org/ .

 Schuett, Ole; Messmer, Peter; Hutter, Juerg; VandeVondele, Joost. 
 Electronic Structure Calculations on Graphics Processing Units, John Wiley & Sons, Ltd, 173-190 (2016). 
 GPU-Accelerated Sparse Matrix-Matrix Multiplication for Linear Scaling Density Functional Theory.
 http://dx.doi.org/10.1002/9781118670712.ch8


 Borstnik, U; VandeVondele, J; Weber, V; Hutter, J. 
 PARALLEL COMPUTING, 40 (5-6), 47-58 (2014). 
 Sparse matrix multiplication: The distributed block-compressed sparse
 row library.
 http://dx.doi.org/10.1016/j.parco.2014.03.012


 Hutter, J; Iannuzzi, M; Schiffmann, F; VandeVondele, J. 
 WILEY INTERDISCIPLINARY REVIEWS-COMPUTATIONAL MOLECULAR SCIENCE, 4 (1), 15-25 (2014). 
 CP2K: atomistic simulations of condensed matter systems.
 http://dx.doi.org/10.1002/wcms.1159


 Krack, M. 
 THEORETICAL CHEMISTRY ACCOUNTS, 114 (1-3), 145-152 (2005). 
 Pseudopotentials for H to Kr optimized for gradient-corrected
 exchange-correlation functionals.
 http://dx.doi.org/10.1007/s00214-005-0655-y


 VandeVondele, J; Krack, M; Mohamed, F; Parrinello, M; Chassaing, T;
 Hutter, J. COMPUTER PHYSICS COMMUNICATIONS, 167 (2), 103-128 (2005). 
 QUICKSTEP: Fast and accurate density functional calculations using a
 mixed Gaussian and plane waves approach.
 http://dx.doi.org/10.1016/j.cpc.2004.12.014


 Frigo, M; Johnson, SG. 
 PROCEEDINGS OF THE IEEE, 93 (2), 216-231 (2005). 
 The design and implementation of FFTW3.
 http://dx.doi.org/10.1109/JPROC.2004.840301


 VandeVondele, J; Hutter, J. 
 JOURNAL OF CHEMICAL PHYSICS, 118 (10), 4365-4369 (2003). 
 An efficient orbital transformation method for electronic structure
 calculations.
 http://dx.doi.org/10.1063/1.1543154


 Hartwigsen, C; Goedecker, S; Hutter, J. 
 PHYSICAL REVIEW B, 58 (7), 3641-3662 (1998). 
 Relativistic separable dual-space Gaussian pseudopotentials from H to Rn.
 http://dx.doi.org/10.1103/PhysRevB.58.3641


 Dudarev, SL; Botton, GA; Savrasov, SY; Humphreys, CJ; Sutton, AP. 
 PHYSICAL REVIEW B, 57 (3), 1505-1509 (1998). 
 Electron-energy-loss spectra and the structural stability of
 nickel oxide: An LSDA+U study.
 http://dx.doi.org/10.1103/PhysRevB.57.1505


 Lippert, G; Hutter, J; Parrinello, M. 
 MOLECULAR PHYSICS, 92 (3), 477-487 (1997). 
 A hybrid Gaussian and plane wave density functional scheme.
 http://dx.doi.org/10.1080/002689797170220


 Dudarev, SL; Manh, DN; Sutton, AP. 
 PHILOSOPHICAL MAGAZINE B, 75 (5), 613-628 (1997). 
 Effect of Mott-Hubbard correlations on the electronic
 structure and structural stability of uranium dioxide.
 http://dx.doi.org/10.1080/13642819708202343


 Goedecker, S; Teter, M; Hutter, J. 
 PHYSICAL REVIEW B, 54 (3), 1703-1710 (1996). 
 Separable dual-space Gaussian pseudopotentials.
 http://dx.doi.org/10.1103/PhysRevB.54.1703


 BECKE, AD. PHYSICAL REVIEW A, 38 (6), 3098-3100 (1988). 
 DENSITY-FUNCTIONAL EXCHANGE-ENERGY APPROXIMATION WITH CORRECT
 ASYMPTOTIC-BEHAVIOR.
 http://dx.doi.org/10.1103/PhysRevA.38.3098


 LEE, CT; YANG, WT; PARR, RG. 
 PHYSICAL REVIEW B, 37 (2), 785-789 (1988). 
 DEVELOPMENT OF THE COLLE-SALVETTI CORRELATION-ENERGY FORMULA INTO A
 FUNCTIONAL OF THE ELECTRON-DENSITY.
 http://dx.doi.org/10.1103/PhysRevB.37.785


 -------------------------------------------------------------------------------
 -                                                                             -
 -                                T I M I N G                                  -
 -                                                                             -
 -------------------------------------------------------------------------------
 SUBROUTINE                       CALLS  ASD         SELF TIME        TOTAL TIME
                                MAXIMUM       AVERAGE  MAXIMUM  AVERAGE  MAXIMUM
 CP2K                                 1  1.0    0.057    0.064 1071.562 1071.562
 qs_energies                          1  2.0    0.006    0.006 1069.825 1069.825
 scf_env_do_scf                       1  3.0    0.000    0.000 1063.413 1063.413
 scf_env_do_scf_inner_loop           73  4.0    0.003    0.007 1048.050 1048.063
 pw_transfer                       3286  9.3    0.252    0.305  780.060  785.194
 fft_wrap_pw1pw2                   3140 10.3    0.042    0.049  774.088  779.211
 qs_ks_update_qs_env                 74  5.0    0.003    0.003  760.724  760.741
 rebuild_ks_matrix                   73  6.0    0.000    0.000  760.707  760.723
 qs_ks_build_kohn_sham_matrix        73  7.0    0.026    0.030  760.706  760.723
 fft_wrap_pw1pw2_330               1142 11.9   60.374   69.410  741.465  744.324
 fft3d_ps                          3140 12.3  331.382  339.801  609.056  621.017
 qs_vxc_create                       73  8.0    0.002    0.002  602.266  603.343
 xc_vxc_pw_create                    37  9.0    9.978   11.848  415.549  416.625
 xc_rho_set_and_dset_create          73 10.0   15.411   17.069  378.510  382.140
 qs_rho_update_rho                   74  5.0    0.001    0.001  303.408  303.415
 calculate_rho_elec                 148  6.0    7.539   26.021  303.408  303.414
 density_rs2pw                      148  7.0    0.018    0.020  282.088  287.647
 x_to_yz                            993 14.4   83.345   86.919  179.234  187.117
 xc_exc_calc                         36  9.0    0.413    0.458  186.716  186.727
 mp_alltoall_z22v                  3140 14.3  163.452  175.800  163.452  175.800
 yz_to_x                           1037 12.6   30.648   34.585   98.188  103.992
 sum_up_and_integrate                37  8.0    1.405    1.527  103.655  103.657
 rs_pw_transfer                    2224  9.0    0.030    0.047   98.900  103.205
 integrate_v_rspace                  74  9.0    1.953    6.427  102.250  102.307
 potential_pw2rs                     74 10.0    0.122    0.190   95.636   95.736
 pw_scatter_p                      1363 13.5   67.437   72.963   67.437   72.963
 pw_derive                          660 10.7   48.452   49.236   48.452   49.236
 rs_pw_transfer_RS2PW_330           150  9.0   19.686   23.792   39.170   45.230
 mp_waitany                       19712 11.0   29.251   38.156   29.251   38.156
 pw_gather_p                       1777 11.4   34.628   36.829   34.628   36.829
 pw_copy                           1544 10.8   29.323   30.916   29.323   30.916
 fft_wrap_pw1pw2_110                222 11.0    2.234    2.480   26.606   30.487
 pw_axpy                           2071  8.4   23.521   24.485   23.521   24.485
 rs_pw_transfer_PW2RS_330            76 11.9   12.141   13.325   21.533   22.939
 -------------------------------------------------------------------------------

 The number of warnings for this run is : 74
 
 -------------------------------------------------------------------------------
  **** **** ******  **  PROGRAM ENDED AT                 2019-08-06 15:18:55.920
 ***** ** ***  *** **   PROGRAM RAN ON            cpn-p28-29.cbls.ccr.buffalo.ed
 **    ****   ******    PROGRAM RAN BY                                  pavankum
 ***** **    ** ** **   PROGRAM PROCESS ID                                108463
  **** **  *******  **  PROGRAM STOPPED IN /projects/academic/mdupuis2/pavan/VAB
                                           _calculation/results_for_paper/3.1D_F
                                           e_7units/blyp_plusU6/point_0.8
