 DBCSR| Multiplication driver                                               BLAS
 DBCSR| Multrec recursion limit                                              512
 DBCSR| Multiplication stack size                                           1000
 DBCSR| Maximum elements for images                                    UNLIMITED
 DBCSR| Multiplicative factor virtual images                                   1
 DBCSR| Multiplication size stacks                                             3
 DBCSR| Number of 3D layers                                               SINGLE
 DBCSR| Use MPI memory allocation                                              T
 DBCSR| Use RMA algorithm                                                      F
 DBCSR| Use Communication thread                                               T
 DBCSR| Communication thread load                                             87


  **** **** ******  **  PROGRAM STARTED AT               2019-08-08 09:00:26.030
 ***** ** ***  *** **   PROGRAM STARTED ON        cpn-p28-08.cbls.ccr.buffalo.ed
 **    ****   ******    PROGRAM STARTED BY                              pavankum
 ***** **    ** ** **   PROGRAM PROCESS ID                                 68312
  **** **  *******  **  PROGRAM STARTED IN /projects/academic/mdupuis2/pavan/VAB
                                           _calculation/results_for_paper/3.1D_F
                                           e_7units/blyp_plusU8/gopt_state0

 CP2K| version string:                                          CP2K version 6.1
 CP2K| source code revision number:                                    svn:18464
 CP2K| cp2kflags: libint fftw3 libxc parallel mpi3 scalapack libderiv_max_am1=5 
 CP2K|            libint_max_am=6
 CP2K| is freely available from                            https://www.cp2k.org/
 CP2K| Program compiled at                          Fri Nov 30 14:17:09 EST 2018
 CP2K| Program compiled on                       srv-p22-12.cbls.ccr.buffalo.edu
 CP2K| Program compiled for                                                local
 CP2K| Data directory path    /projects/academic/mdupuis2/pavan/cp2k/cp2k-6.1/da
 CP2K| Input file name                                                 input.inp

 GLOBAL| Force Environment number                                              1
 GLOBAL| Basis set file name            /projects/academic/mdupuis2/pavan/BASIS_
 GLOBAL| Potential file name            /projects/academic/mdupuis2/pavan/POTENT
 GLOBAL| MM Potential file name                                     MM_POTENTIAL
 GLOBAL| Coordinate file name                                           opt0.xyz
 GLOBAL| Method name                                                        CP2K
 GLOBAL| Project name                                                      p_fe_
 GLOBAL| Preferred FFT library                                             FFTW3
 GLOBAL| Preferred diagonalization lib.                                       SL
 GLOBAL| Run type                                                        GEO_OPT
 GLOBAL| All-to-all communication in single precision                          F
 GLOBAL| FFTs using library dependent lengths                                  T
 GLOBAL| Global print level                                               MEDIUM
 GLOBAL| Total number of message passing processes                           100
 GLOBAL| Number of threads for this process                                    1
 GLOBAL| This output is from process                                           0
 GLOBAL| CPU model name :  Intel(R) Xeon(R) CPU E5-2650 v3 @ 2.30GHz

 MEMORY| system memory details [Kb]
 MEMORY|                        rank 0           min           max       average
 MEMORY| MemTotal             65684716      65684716      65684716      65684716
 MEMORY| MemFree              39466264      34505944      60612900      50960911
 MEMORY| Buffers                496772        496772        511052        505097
 MEMORY| Cached               21539472        639836      26555396      10128585
 MEMORY| Slab                   680236        440224        680236        506651
 MEMORY| SReclaimable           500836        266496        500836        331160
 MEMORY| MemLikelyFree        62003344      61782596      62040596      61925754


 *** Fundamental physical constants (SI units) ***

 *** Literature: B. J. Mohr and B. N. Taylor,
 ***             CODATA recommended values of the fundamental physical
 ***             constants: 2006, Web Version 5.1
 ***             http://physics.nist.gov/constants

 Speed of light in vacuum [m/s]                             2.99792458000000E+08
 Magnetic constant or permeability of vacuum [N/A**2]       1.25663706143592E-06
 Electric constant or permittivity of vacuum [F/m]          8.85418781762039E-12
 Planck constant (h) [J*s]                                  6.62606896000000E-34
 Planck constant (h-bar) [J*s]                              1.05457162825177E-34
 Elementary charge [C]                                      1.60217648700000E-19
 Electron mass [kg]                                         9.10938215000000E-31
 Electron g factor [ ]                                     -2.00231930436220E+00
 Proton mass [kg]                                           1.67262163700000E-27
 Fine-structure constant                                    7.29735253760000E-03
 Rydberg constant [1/m]                                     1.09737315685270E+07
 Avogadro constant [1/mol]                                  6.02214179000000E+23
 Boltzmann constant [J/K]                                   1.38065040000000E-23
 Atomic mass unit [kg]                                      1.66053878200000E-27
 Bohr radius [m]                                            5.29177208590000E-11

 *** Conversion factors ***

 [u] -> [a.u.]                                              1.82288848426455E+03
 [Angstrom] -> [Bohr] = [a.u.]                              1.88972613288564E+00
 [a.u.] = [Bohr] -> [Angstrom]                              5.29177208590000E-01
 [a.u.] -> [s]                                              2.41888432650478E-17
 [a.u.] -> [fs]                                             2.41888432650478E-02
 [a.u.] -> [J]                                              4.35974393937059E-18
 [a.u.] -> [N]                                              8.23872205491840E-08
 [a.u.] -> [K]                                              3.15774647902944E+05
 [a.u.] -> [kJ/mol]                                         2.62549961709828E+03
 [a.u.] -> [kcal/mol]                                       6.27509468713739E+02
 [a.u.] -> [Pa]                                             2.94210107994716E+13
 [a.u.] -> [bar]                                            2.94210107994716E+08
 [a.u.] -> [atm]                                            2.90362800883016E+08
 [a.u.] -> [eV]                                             2.72113838565563E+01
 [a.u.] -> [Hz]                                             6.57968392072181E+15
 [a.u.] -> [1/cm] (wave numbers)                            2.19474631370540E+05
 [a.u./Bohr**2] -> [1/cm]                                   5.14048714338585E+03
 

 CELL_TOP| Volume [angstrom^3]:                                        26196.625
 CELL_TOP| Vector a [angstrom    21.385     0.000     0.000    |a| =      21.385
 CELL_TOP| Vector b [angstrom     0.000    35.000     0.000    |b| =      35.000
 CELL_TOP| Vector c [angstrom     0.000     0.000    35.000    |c| =      35.000
 CELL_TOP| Angle (b,c), alpha [degree]:                                   90.000
 CELL_TOP| Angle (a,c), beta  [degree]:                                   90.000
 CELL_TOP| Angle (a,b), gamma [degree]:                                   90.000
 CELL_TOP| Numerically orthorhombic:                                         YES

 CELL| Volume [angstrom^3]:                                            26196.625
 CELL| Vector a [angstrom]:      21.385     0.000     0.000    |a| =      21.385
 CELL| Vector b [angstrom]:       0.000    35.000     0.000    |b| =      35.000
 CELL| Vector c [angstrom]:       0.000     0.000    35.000    |c| =      35.000
 CELL| Angle (b,c), alpha [degree]:                                       90.000
 CELL| Angle (a,c), beta  [degree]:                                       90.000
 CELL| Angle (a,b), gamma [degree]:                                       90.000
 CELL| Numerically orthorhombic:                                             YES

 CELL_REF| Volume [angstrom^3]:                                        26196.625
 CELL_REF| Vector a [angstrom    21.385     0.000     0.000    |a| =      21.385
 CELL_REF| Vector b [angstrom     0.000    35.000     0.000    |b| =      35.000
 CELL_REF| Vector c [angstrom     0.000     0.000    35.000    |c| =      35.000
 CELL_REF| Angle (b,c), alpha [degree]:                                   90.000
 CELL_REF| Angle (a,c), beta  [degree]:                                   90.000
 CELL_REF| Angle (a,b), gamma [degree]:                                   90.000
 CELL_REF| Numerically orthorhombic:                                         YES

 *******************************************************************************
 *******************************************************************************
 **                                                                           **
 **     #####                         ##              ##                      **
 **    ##   ##            ##          ##              ##                      **
 **   ##     ##                       ##            ######                    **
 **   ##     ##  ##   ##  ##   #####  ##  ##   ####   ##    #####    #####    **
 **   ##     ##  ##   ##  ##  ##      ## ##   ##      ##   ##   ##  ##   ##   **
 **   ##  ## ##  ##   ##  ##  ##      ####     ###    ##   ######   ######    **
 **    ##  ###   ##   ##  ##  ##      ## ##      ##   ##   ##       ##        **
 **     #######   #####   ##   #####  ##  ##  ####    ##    #####   ##        **
 **           ##                                                    ##        **
 **                                                                           **
 **                                                ... make the atoms dance   **
 **                                                                           **
 **            Copyright (C) by CP2K developers group (2000 - 2018)           **
 **                                                                           **
 *******************************************************************************

 DFT| Spin unrestricted (spin-polarized) Kohn-Sham calculation               UKS
 DFT| Multiplicity                                                            35
 DFT| Number of spin states                                                    2
 DFT| Charge                                                                   6
 DFT| Self-interaction correction (SIC)                                       NO
 DFT| Cutoffs: density                                              1.000000E-10
 DFT|          gradient                                             1.000000E-10
 DFT|          tau                                                  1.000000E-10
 DFT|          cutoff_smoothing_range                               0.000000E+00
 DFT| XC density smoothing                                                  NONE
 DFT| XC derivatives                                                          PW

 DFT+U| Method                                                          MULLIKEN
 DFT+U| Check atomic kind information for details
 FUNCTIONAL| ROUTINE=NEW
 FUNCTIONAL| BECKE88:
 FUNCTIONAL| A. Becke, Phys. Rev. A 38, 3098 (1988) {LSD version}               
 FUNCTIONAL| LYP:
 FUNCTIONAL| C. Lee, W. Yang, R.G. Parr, Phys. Rev. B, 37, 785 (1988) {LSD versi
 FUNCTIONAL| on}                                                                

 QS| Method:                                                                 GPW
 QS| Density plane wave grid type                        NON-SPHERICAL FULLSPACE
 QS| Number of grid levels:                                                   10
 QS| Density cutoff [a.u.]:                                                325.0
 QS| Multi grid cutoff [a.u.]: 1) grid level                               325.0
 QS|                           2) grid level                               108.3
 QS|                           3) grid level                                36.1
 QS|                           4) grid level                                12.0
 QS|                           5) grid level                                 4.0
 QS|                           6) grid level                                 1.3
 QS|                           7) grid level                                 0.4
 QS|                           8) grid level                                 0.1
 QS|                           9) grid level                                 0.0
 QS|                          10) grid level                                 0.0
 QS| Grid level progression factor:                                          3.0
 QS| Relative density cutoff [a.u.]:                                        30.0
 QS| Consistent realspace mapping and integration 
 QS| Interaction thresholds: eps_pgf_orb:                                1.0E-10
 QS|                         eps_filter_matrix:                          0.0E+00
 QS|                         eps_core_charge:                            1.0E-14
 QS|                         eps_rho_gspace:                             1.0E-12
 QS|                         eps_rho_rspace:                             1.0E-12
 QS|                         eps_gvg_rspace:                             1.0E-06
 QS|                         eps_ppl:                                    1.0E-02
 QS|                         eps_ppnl:                                   1.0E-08


 ATOMIC KIND INFORMATION

  1. Atomic kind: Fe                                    Number of atoms:       7

     Orbital Basis Set                                                   mod-DZV

       Number of orbital shell sets:                                           1
       Number of orbital shells:                                               7
       Number of primitive Cartesian functions:                                6
       Number of Cartesian basis functions:                                   21
       Number of spherical basis functions:                                   19
       Norm type:                                                              2

       Normalised Cartesian orbitals:

                        Set   Shell   Orbital            Exponent    Coefficient

                          1       1    2s                8.424366      -0.545589
                                                         4.825220      -0.832336
                                                         2.198939       0.958990
                                                         0.891661       0.416271
                                                         0.316231       0.012631
                                                         0.103474      -0.013505

                          1       2    3s                8.424366      -0.106056
                                                         4.825220      -0.104587
                                                         2.198939       0.052318
                                                         0.891661      -0.169042
                                                         0.316231       0.061854
                                                         0.103474       0.122891

                          1       3    4s                8.424366      -0.333477
                                                         4.825220      -0.289267
                                                         2.198939      -0.125861
                                                         0.891661      -1.004000
                                                         0.316231       0.780774
                                                         0.103474      -0.187846

                          1       4    3px               8.424366      -1.658234
                                                         4.825220       1.618912
                                                         2.198939       1.969078
                                                         0.891661       0.523780
                                                         0.316231       0.024574
                                                         0.103474      -0.000798
                          1       4    3py               8.424366      -1.658234
                                                         4.825220       1.618912
                                                         2.198939       1.969078
                                                         0.891661       0.523780
                                                         0.316231       0.024574
                                                         0.103474      -0.000798
                          1       4    3pz               8.424366      -1.658234
                                                         4.825220       1.618912
                                                         2.198939       1.969078
                                                         0.891661       0.523780
                                                         0.316231       0.024574
                                                         0.103474      -0.000798

                          1       5    4px               8.424366      -0.105249
                                                         4.825220      -0.126123
                                                         2.198939      -0.349657
                                                         0.891661      -0.133470
                                                         0.316231       0.170554
                                                         0.103474       0.054381
                          1       5    4py               8.424366      -0.105249
                                                         4.825220      -0.126123
                                                         2.198939      -0.349657
                                                         0.891661      -0.133470
                                                         0.316231       0.170554
                                                         0.103474       0.054381
                          1       5    4pz               8.424366      -0.105249
                                                         4.825220      -0.126123
                                                         2.198939      -0.349657
                                                         0.891661      -0.133470
                                                         0.316231       0.170554
                                                         0.103474       0.054381

                          1       6    4dx2              8.424366       7.918298
                                                         4.825220       5.112663
                                                         2.198939       2.118663
                                                         0.891661       0.465004
                                                         0.316231       0.065856
                                                         0.103474       0.002769
                          1       6    4dxy              8.424366      13.714895
                                                         4.825220       8.855393
                                                         2.198939       3.669632
                                                         0.891661       0.805411
                                                         0.316231       0.114066
                                                         0.103474       0.004796
                          1       6    4dxz              8.424366      13.714895
                                                         4.825220       8.855393
                                                         2.198939       3.669632
                                                         0.891661       0.805411
                                                         0.316231       0.114066
                                                         0.103474       0.004796
                          1       6    4dy2              8.424366       7.918298
                                                         4.825220       5.112663
                                                         2.198939       2.118663
                                                         0.891661       0.465004
                                                         0.316231       0.065856
                                                         0.103474       0.002769
                          1       6    4dyz              8.424366      13.714895
                                                         4.825220       8.855393
                                                         2.198939       3.669632
                                                         0.891661       0.805411
                                                         0.316231       0.114066
                                                         0.103474       0.004796
                          1       6    4dz2              8.424366       7.918298
                                                         4.825220       5.112663
                                                         2.198939       2.118663
                                                         0.891661       0.465004
                                                         0.316231       0.065856
                                                         0.103474       0.002769

                          1       7    5dx2              8.424366      -4.223614
                                                         4.825220      -1.970584
                                                         2.198939      -1.543490
                                                         0.891661      -0.041381
                                                         0.316231       0.082821
                                                         0.103474       0.021964
                          1       7    5dxy              8.424366      -7.315513
                                                         4.825220      -3.413151
                                                         2.198939      -2.673404
                                                         0.891661      -0.071673
                                                         0.316231       0.143450
                                                         0.103474       0.038042
                          1       7    5dxz              8.424366      -7.315513
                                                         4.825220      -3.413151
                                                         2.198939      -2.673404
                                                         0.891661      -0.071673
                                                         0.316231       0.143450
                                                         0.103474       0.038042
                          1       7    5dy2              8.424366      -4.223614
                                                         4.825220      -1.970584
                                                         2.198939      -1.543490
                                                         0.891661      -0.041381
                                                         0.316231       0.082821
                                                         0.103474       0.021964
                          1       7    5dyz              8.424366      -7.315513
                                                         4.825220      -3.413151
                                                         2.198939      -2.673404
                                                         0.891661      -0.071673
                                                         0.316231       0.143450
                                                         0.103474       0.038042
                          1       7    5dz2              8.424366      -4.223614
                                                         4.825220      -1.970584
                                                         2.198939      -1.543490
                                                         0.891661      -0.041381
                                                         0.316231       0.082821
                                                         0.103474       0.021964

     GTH Potential information for                                  GTH-BLYP-q16

       Description:                       Goedecker-Teter-Hutter pseudopotential
                                           Goedecker et al., PRB 54, 1703 (1996)
                                          Hartwigsen et al., PRB 58, 3641 (1998)
                                                      Krack, TCA 114, 145 (2005)

       Gaussian exponent of the core charge distribution:               3.858025
       Electronic configuration (s p d ...):                           4   6   6

       Parameters of the local part of the GTH pseudopotential:

                          rloc        C1          C2          C3          C4
                        0.360000    7.011025   -0.222747

       Parameters of the non-local part of the GTH pseudopotential:

                   l      r(l)      h(i,j,l)

                   0    0.276205    0.611496    7.992357
                                    7.992357  -10.318089
                   1    0.247130   -8.710556    8.684169
                                    8.684169  -10.275248
                   2    0.223534  -12.411504

     A DFT+U correction is applied to atoms of this atomic kind:
       Angular quantum momentum number L:                                      2
       U(eff) = (U - J) value in [eV]:                                     8.000

  2. Atomic kind: O                                     Number of atoms:      28

     Orbital Basis Set                                                   mod-DZV

       Number of orbital shell sets:                                           1
       Number of orbital shells:                                               4
       Number of primitive Cartesian functions:                                5
       Number of Cartesian basis functions:                                    8
       Number of spherical basis functions:                                    8
       Norm type:                                                              2

       Normalised Cartesian orbitals:

                        Set   Shell   Orbital            Exponent    Coefficient

                          1       1    2s               10.389228       0.396646
                                                         3.849621       0.208811
                                                         1.388401      -0.301641
                                                         0.496955      -0.274061
                                                         0.162492      -0.033677

                          1       2    3s               10.389228       0.303673
                                                         3.849621       0.240943
                                                         1.388401      -0.313066
                                                         0.496955      -0.043055
                                                         0.162492       0.213991

                          1       3    3px              10.389228      -1.530415
                                                         3.849621      -1.371928
                                                         1.388401      -0.761951
                                                         0.496955      -0.253695
                                                         0.162492      -0.035541
                          1       3    3py              10.389228      -1.530415
                                                         3.849621      -1.371928
                                                         1.388401      -0.761951
                                                         0.496955      -0.253695
                                                         0.162492      -0.035541
                          1       3    3pz              10.389228      -1.530415
                                                         3.849621      -1.371928
                                                         1.388401      -0.761951
                                                         0.496955      -0.253695
                                                         0.162492      -0.035541

                          1       4    4px              10.389228      -0.565392
                                                         3.849621      -0.038231
                                                         1.388401      -0.382373
                                                         0.496955       0.179070
                                                         0.162492       0.122714
                          1       4    4py              10.389228      -0.565392
                                                         3.849621      -0.038231
                                                         1.388401      -0.382373
                                                         0.496955       0.179070
                                                         0.162492       0.122714
                          1       4    4pz              10.389228      -0.565392
                                                         3.849621      -0.038231
                                                         1.388401      -0.382373
                                                         0.496955       0.179070
                                                         0.162492       0.122714

     GTH Potential information for                                   GTH-BLYP-q6

       Description:                       Goedecker-Teter-Hutter pseudopotential
                                           Goedecker et al., PRB 54, 1703 (1996)
                                          Hartwigsen et al., PRB 58, 3641 (1998)
                                                      Krack, TCA 114, 145 (2005)

       Gaussian exponent of the core charge distribution:               8.438331
       Electronic configuration (s p d ...):                               2   4

       Parameters of the local part of the GTH pseudopotential:

                          rloc        C1          C2          C3          C4
                        0.243420  -16.991892    2.566142

       Parameters of the non-local part of the GTH pseudopotential:

                   l      r(l)      h(i,j,l)

                   0    0.220831   18.388851
                   1    0.217201

  3. Atomic kind: H                                     Number of atoms:      42

     Orbital Basis Set                                                   mod-DZV

       Number of orbital shell sets:                                           1
       Number of orbital shells:                                               2
       Number of primitive Cartesian functions:                                5
       Number of Cartesian basis functions:                                    2
       Number of spherical basis functions:                                    2
       Norm type:                                                              2

       Normalised Cartesian orbitals:

                        Set   Shell   Orbital            Exponent    Coefficient

                          1       1    2s               10.068468      -0.133023
                                                         2.680223      -0.177618
                                                         0.791502      -0.258419
                                                         0.239116      -0.107525
                                                         0.082193      -0.014019

                          1       2    3s               10.068468       0.344673
                                                         2.680223       1.819821
                                                         0.791502      -0.999069
                                                         0.239116       0.017430
                                                         0.082193       0.082660

     GTH Potential information for                                   GTH-BLYP-q1

       Description:                       Goedecker-Teter-Hutter pseudopotential
                                           Goedecker et al., PRB 54, 1703 (1996)
                                          Hartwigsen et al., PRB 58, 3641 (1998)
                                                      Krack, TCA 114, 145 (2005)

       Gaussian exponent of the core charge distribution:              12.500000
       Electronic configuration (s p d ...):                                   1

       Parameters of the local part of the GTH pseudopotential:

                          rloc        C1          C2          C3          C4
                        0.200000   -4.195961    0.730498


 MOLECULE KIND INFORMATION


 All atoms are their own molecule, skipping detailed information


 TOTAL NUMBERS AND MAXIMUM NUMBERS

  Total number of            - Atomic kinds:                                   3
                             - Atoms:                                         77
                             - Shell sets:                                    77
                             - Shells:                                       245
                             - Primitive Cartesian functions:                392
                             - Cartesian basis functions:                    455
                             - Spherical basis functions:                    441

  Maximum angular momentum of- Orbital basis functions:                        2
                             - Local part of the GTH pseudopotential:          2
                             - Non-local part of the GTH pseudopotential:      3


 MODULE QUICKSTEP:  ATOMIC COORDINATES IN angstrom

  Atom  Kind  Element       X           Y           Z          Z(eff)       Mass

       1     1 Fe  26   18.339949   -0.000172   -0.000444     16.00      55.8450
       2     1 Fe  26   15.292321    0.000034   -0.000021     16.00      55.8450
       3     1 Fe  26   12.219796   -0.000252    0.000197     16.00      55.8450
       4     1 Fe  26    9.138286   -0.000152    0.000074     16.00      55.8450
       5     1 Fe  26    6.123872    0.014282    0.000098     16.00      55.8450
       6     1 Fe  26    3.109435    0.000089    0.000034     16.00      55.8450
       7     1 Fe  26    0.024540   -0.000317    0.000130     16.00      55.8450
       8     2 O    8   18.314553    0.032095    2.077188      6.00      15.9994
       9     2 O    8   18.314555   -0.032114   -2.077060      6.00      15.9994
      10     2 O    8   19.859299   -1.208890    0.024011      6.00      15.9994
      11     2 O    8   19.859197    1.208574   -0.023851      6.00      15.9994
      12     2 O    8   15.269937    0.032099    2.079389      6.00      15.9994
      13     2 O    8   15.269840   -0.032116   -2.079148      6.00      15.9994
      14     2 O    8   16.814402   -1.212958    0.025333      6.00      15.9994
      15     2 O    8   16.814396    1.212896   -0.025242      6.00      15.9994
      16     2 O    8   12.232881    0.029124    2.097767      6.00      15.9994
      17     2 O    8   12.232936   -0.029541   -2.097548      6.00      15.9994
      18     2 O    8   13.769145   -1.208785    0.024038      6.00      15.9994
      19     2 O    8   13.769270    1.208459   -0.023834      6.00      15.9994
      20     2 O    8    9.230145   -0.029493    2.116827      6.00      15.9994
      21     2 O    8    9.230220    0.028658   -2.116873      6.00      15.9994
      22     2 O    8   10.729568   -1.207319   -0.001034      6.00      15.9994
      23     2 O    8   10.730596    1.206923    0.001315      6.00      15.9994
      24     2 O    8    6.126392    0.024759    2.171171      6.00      15.9994
      25     2 O    8    6.126557    0.034859   -2.171575      6.00      15.9994
      26     2 O    8    7.757955   -1.259092   -0.024498      6.00      15.9994
      27     2 O    8    7.767950    1.266955    0.025189      6.00      15.9994
      28     2 O    8    3.015432   -0.030242    2.114240      6.00      15.9994
      29     2 O    8    3.015474    0.029187   -2.114256      6.00      15.9994
      30     2 O    8    4.489509   -1.259153   -0.024500      6.00      15.9994
      31     2 O    8    4.479369    1.266982    0.025219      6.00      15.9994
      32     2 O    8   -0.023752    0.027661    2.097758      6.00      15.9994
      33     2 O    8   -0.023548   -0.028182   -2.097599      6.00      15.9994
      34     2 O    8    1.514908   -1.206052   -0.008010      6.00      15.9994
      35     2 O    8    1.513725    1.205610    0.008198      6.00      15.9994
      36     3 H    1   18.386623   -0.847975   -2.635705      1.00       1.0079
      37     3 H    1   18.369480    0.776110   -2.648586      1.00       1.0079
      38     3 H    1   18.368047   -0.776043    2.649013      1.00       1.0079
      39     3 H    1   18.387999    0.848071    2.635550      1.00       1.0079
      40     3 H    1   19.870186   -2.196954    0.027344      1.00       1.0079
      41     3 H    1   19.870373    2.196600   -0.027510      1.00       1.0079
      42     3 H    1   15.173298   -0.848116   -2.633840      1.00       1.0079
      43     3 H    1   15.184025    0.775756   -2.647342      1.00       1.0079
      44     3 H    1   15.185926   -0.775611    2.648042      1.00       1.0079
      45     3 H    1   15.172329    0.848247    2.633679      1.00       1.0079
      46     3 H    1   16.813298   -2.201008    0.029080      1.00       1.0079
      47     3 H    1   16.813287    2.200927   -0.029108      1.00       1.0079
      48     3 H    1   12.008012   -0.842928   -2.618993      1.00       1.0079
      49     3 H    1   12.042503    0.776975   -2.642932      1.00       1.0079
      50     3 H    1   12.050220   -0.778689    2.643910      1.00       1.0079
      51     3 H    1   12.000958    0.840818    2.618777      1.00       1.0079
      52     3 H    1   13.756590   -2.196836    0.028229      1.00       1.0079
      53     3 H    1   13.756419    2.196498   -0.027852      1.00       1.0079
      54     3 H    1    8.999367   -0.773939   -2.652168      1.00       1.0079
      55     3 H    1    9.025242    0.849303   -2.635130      1.00       1.0079
      56     3 H    1    9.035693   -0.852146    2.636121      1.00       1.0079
      57     3 H    1    8.988769    0.770705    2.650885      1.00       1.0079
      58     3 H    1   10.695686   -2.194102    0.001427      1.00       1.0079
      59     3 H    1   10.697279    2.193675   -0.000970      1.00       1.0079
      60     3 H    1    6.109853   -0.778759   -2.737533      1.00       1.0079
      61     3 H    1    6.110077    0.847064   -2.739654      1.00       1.0079
      62     3 H    1    6.109609   -0.779065    2.750943      1.00       1.0079
      63     3 H    1    6.109635    0.846796    2.724888      1.00       1.0079
      64     3 H    1    7.730278   -2.244047   -0.029006      1.00       1.0079
      65     3 H    1    7.750932    2.252247    0.028204      1.00       1.0079
      66     3 H    1    3.213783   -0.775340   -2.658924      1.00       1.0079
      67     3 H    1    3.190241    0.849901   -2.642655      1.00       1.0079
      68     3 H    1    3.181053   -0.852512    2.643305      1.00       1.0079
      69     3 H    1    3.222416    0.772441    2.658226      1.00       1.0079
      70     3 H    1    4.517016   -2.244112   -0.028909      1.00       1.0079
      71     3 H    1    4.496400    2.252315    0.028189      1.00       1.0079
      72     3 H    1    0.175796   -0.841849   -2.628787      1.00       1.0079
      73     3 H    1    0.131612    0.779367   -2.652435      1.00       1.0079
      74     3 H    1    0.125056   -0.780801    2.653008      1.00       1.0079
      75     3 H    1    0.181030    0.840059    2.628793      1.00       1.0079
      76     3 H    1    1.547890   -2.192899   -0.004058      1.00       1.0079
      77     3 H    1    1.546143    2.192443    0.004432      1.00       1.0079




 SCF PARAMETERS         Density guess:                                   RESTART
                        --------------------------------------------------------
                        max_scf:                                            1000
                        max_scf_history:                                       0
                        max_diis:                                              4
                        --------------------------------------------------------
                        eps_scf:                                        1.00E-06
                        eps_scf_history:                                0.00E+00
                        eps_diis:                                       1.00E-01
                        eps_eigval:                                     1.00E-05
                        --------------------------------------------------------
                        level_shift [a.u.]:                                 0.00
                        --------------------------------------------------------
                        Outer loop SCF in use 
                        No variables optimised in outer loop
                        eps_scf                                         1.00E-06
                        max_scf                                              500
                        No outer loop optimization
                        step_size                                       5.00E-01

 PW_GRID| Information for grid number                                          1
 PW_GRID| Grid distributed over                                   100 processors
 PW_GRID| Real space group dimensions                                   100    1
 PW_GRID| the grid is blocked:                                                NO
 PW_GRID| Cutoff [a.u.]                                                    325.0
 PW_GRID| spherical cutoff:                                                   NO
 PW_GRID|   Bounds   1           -165     164                Points:         330
 PW_GRID|   Bounds   2           -270     269                Points:         540
 PW_GRID|   Bounds   3           -270     269                Points:         540
 PW_GRID| Volume element (a.u.^3)  0.1837E-02     Volume (a.u.^3)    176783.5904
 PW_GRID| Grid span                                                    FULLSPACE
 PW_GRID|   Distribution                         Average         Max         Min
 PW_GRID|   G-Vectors                           962280.0      962280      962280
 PW_GRID|   G-Rays                                2916.0        2916        2916
 PW_GRID|   Real Space Points                   962280.0     1166400      874800

 PW_GRID| Information for grid number                                          2
 PW_GRID| Grid distributed over                                   100 processors
 PW_GRID| Real space group dimensions                                   100    1
 PW_GRID| the grid is blocked:                                                NO
 PW_GRID| Cutoff [a.u.]                                                    108.3
 PW_GRID| spherical cutoff:                                                   NO
 PW_GRID|   Bounds   1            -94      94                Points:         189
 PW_GRID|   Bounds   2           -157     157                Points:         315
 PW_GRID|   Bounds   3           -157     157                Points:         315
 PW_GRID| Volume element (a.u.^3)  0.9427E-02     Volume (a.u.^3)    176783.5904
 PW_GRID| Grid span                                                    FULLSPACE
 PW_GRID|   Distribution                         Average         Max         Min
 PW_GRID|   G-Vectors                           187535.2      187866      187110
 PW_GRID|   G-Rays                                 992.2         994         990
 PW_GRID|   Real Space Points                   187535.2      198450       99225

 PW_GRID| Information for grid number                                          3
 PW_GRID| Grid distributed over                                   100 processors
 PW_GRID| Real space group dimensions                                   100    1
 PW_GRID| the grid is blocked:                                                NO
 PW_GRID| Cutoff [a.u.]                                                     36.1
 PW_GRID| spherical cutoff:                                                   NO
 PW_GRID|   Bounds   1            -55      54                Points:         110
 PW_GRID|   Bounds   2            -90      89                Points:         180
 PW_GRID|   Bounds   3            -90      89                Points:         180
 PW_GRID| Volume element (a.u.^3)  0.4960E-01     Volume (a.u.^3)    176783.5904
 PW_GRID| Grid span                                                    FULLSPACE
 PW_GRID|   Distribution                         Average         Max         Min
 PW_GRID|   G-Vectors                            35640.0       35750       35530
 PW_GRID|   G-Rays                                 324.0         325         323
 PW_GRID|   Real Space Points                    35640.0       64800       32400

 PW_GRID| Information for grid number                                          4
 PW_GRID| Grid distributed over                                   100 processors
 PW_GRID| Real space group dimensions                                    10   10
 PW_GRID| the grid is blocked:                                                NO
 PW_GRID| Cutoff [a.u.]                                                     12.0
 PW_GRID| spherical cutoff:                                                   NO
 PW_GRID|   Bounds   1            -31      31                Points:          63
 PW_GRID|   Bounds   2            -52      52                Points:         105
 PW_GRID|   Bounds   3            -52      52                Points:         105
 PW_GRID| Volume element (a.u.^3)  0.2545         Volume (a.u.^3)    176783.5904
 PW_GRID| Grid span                                                    FULLSPACE
 PW_GRID|   Distribution                         Average         Max         Min
 PW_GRID|   G-Vectors                             6945.8        7245        6678
 PW_GRID|   G-Rays                                 110.2         115         106
 PW_GRID|   Real Space Points                     6945.8        8085        6300

 PW_GRID| Information for grid number                                          5
 PW_GRID| Grid distributed over                                   100 processors
 PW_GRID| Real space group dimensions                                    10   10
 PW_GRID| the grid is blocked:                                                NO
 PW_GRID| Cutoff [a.u.]                                                      4.0
 PW_GRID| spherical cutoff:                                                   NO
 PW_GRID|   Bounds   1            -20      19                Points:          40
 PW_GRID|   Bounds   2            -30      29                Points:          60
 PW_GRID|   Bounds   3            -30      29                Points:          60
 PW_GRID| Volume element (a.u.^3)   1.228         Volume (a.u.^3)    176783.5904
 PW_GRID| Grid span                                                    FULLSPACE
 PW_GRID|   Distribution                         Average         Max         Min
 PW_GRID|   G-Vectors                             1440.0        1480        1400
 PW_GRID|   G-Rays                                  36.0          37          35
 PW_GRID|   Real Space Points                     1440.0        1440        1440

 PW_GRID| Information for grid number                                          6
 PW_GRID| Grid distributed over                                   100 processors
 PW_GRID| Real space group dimensions                                    10   10
 PW_GRID| the grid is blocked:                                                NO
 PW_GRID| Cutoff [a.u.]                                                      1.3
 PW_GRID| spherical cutoff:                                                   NO
 PW_GRID|   Bounds   1            -10      10                Points:          21
 PW_GRID|   Bounds   2            -17      17                Points:          35
 PW_GRID|   Bounds   3            -17      17                Points:          35
 PW_GRID| Volume element (a.u.^3)   6.872         Volume (a.u.^3)    176783.5904
 PW_GRID| Grid span                                                    FULLSPACE
 PW_GRID|   Distribution                         Average         Max         Min
 PW_GRID|   G-Vectors                              257.2         294         210
 PW_GRID|   G-Rays                                  12.2          14          10
 PW_GRID|   Real Space Points                      257.2         420         210

 PW_GRID| Information for grid number                                          7
 PW_GRID| Grid distributed over                                   100 processors
 PW_GRID| Real space group dimensions                                    10   10
 PW_GRID| the grid is blocked:                                                NO
 PW_GRID| Cutoff [a.u.]                                                      0.4
 PW_GRID| spherical cutoff:                                                   NO
 PW_GRID|   Bounds   1             -7       6                Points:          14
 PW_GRID|   Bounds   2            -10       9                Points:          20
 PW_GRID|   Bounds   3            -10       9                Points:          20
 PW_GRID| Volume element (a.u.^3)   31.57         Volume (a.u.^3)    176783.5904
 PW_GRID| Grid span                                                    FULLSPACE
 PW_GRID|   Distribution                         Average         Max         Min
 PW_GRID|   G-Vectors                               56.0          70          42
 PW_GRID|   G-Rays                                   4.0           5           3
 PW_GRID|   Real Space Points                       56.0          80          40

 PW_GRID| Information for grid number                                          8
 PW_GRID| Grid distributed over                                   100 processors
 PW_GRID| Real space group dimensions                                    10   10
 PW_GRID| the grid is blocked:                                                NO
 PW_GRID| Cutoff [a.u.]                                                      0.1
 PW_GRID| spherical cutoff:                                                   NO
 PW_GRID|   Bounds   1             -3       3                Points:           7
 PW_GRID|   Bounds   2             -5       5                Points:          11
 PW_GRID|   Bounds   3             -5       5                Points:          11
 PW_GRID| Volume element (a.u.^3)   208.7         Volume (a.u.^3)    176783.5904
 PW_GRID| Grid span                                                    FULLSPACE
 PW_GRID|   Distribution                         Average         Max         Min
 PW_GRID|   G-Vectors                                8.5          14           0
 PW_GRID|   G-Rays                                   1.2           2           0
 PW_GRID|   Real Space Points                        8.5          22           0

 PW_GRID| Information for grid number                                          9
 PW_GRID| Grid distributed over                                   100 processors
 PW_GRID| Real space group dimensions                                    10   10
 PW_GRID| the grid is blocked:                                                NO
 PW_GRID| Cutoff [a.u.]                                                      0.0
 PW_GRID| spherical cutoff:                                                   NO
 PW_GRID|   Bounds   1             -2       2                Points:           5
 PW_GRID|   Bounds   2             -3       3                Points:           7
 PW_GRID|   Bounds   3             -3       3                Points:           7
 PW_GRID| Volume element (a.u.^3)   721.6         Volume (a.u.^3)    176783.5904
 PW_GRID| Grid span                                                    FULLSPACE
 PW_GRID|   Distribution                         Average         Max         Min
 PW_GRID|   G-Vectors                                2.5           5           0
 PW_GRID|   G-Rays                                   0.5           1           0
 PW_GRID|   Real Space Points                        2.5           7           0

 PW_GRID| Information for grid number                                         10
 PW_GRID| Grid distributed over                                   100 processors
 PW_GRID| Real space group dimensions                                    10   10
 PW_GRID| the grid is blocked:                                                NO
 PW_GRID| Cutoff [a.u.]                                                      0.0
 PW_GRID| spherical cutoff:                                                   NO
 PW_GRID|   Bounds   1             -1       1                Points:           3
 PW_GRID|   Bounds   2             -1       1                Points:           3
 PW_GRID|   Bounds   3             -1       1                Points:           3
 PW_GRID| Volume element (a.u.^3)   6548.         Volume (a.u.^3)    176783.5904
 PW_GRID| Grid span                                                    FULLSPACE
 PW_GRID|   Distribution                         Average         Max         Min
 PW_GRID|   G-Vectors                                0.3           3           0
 PW_GRID|   G-Rays                                   0.1           1           0
 PW_GRID|   Real Space Points                        0.3           3           0

 POISSON| Solver                                                        PERIODIC
 POISSON| Periodicity                                                        XYZ

 RS_GRID| Information for grid number                                          1
 RS_GRID|   Bounds   1           -165     164                Points:         330
 RS_GRID|   Bounds   2           -270     269                Points:         540
 RS_GRID|   Bounds   3           -270     269                Points:         540
 RS_GRID| Real space distribution over                                  4 groups
 RS_GRID| Real space distribution along direction                              1
 RS_GRID| Border size                                                         25
 RS_GRID| Real space distribution over                                  5 groups
 RS_GRID| Real space distribution along direction                              2
 RS_GRID| Border size                                                         25
 RS_GRID| Real space distribution over                                  5 groups
 RS_GRID| Real space distribution along direction                              3
 RS_GRID| Border size                                                         25
 RS_GRID|   Distribution                         Average         Max         Min
 RS_GRID|   Planes                                 132.5         133         132
 RS_GRID|   Distribution                         Average         Max         Min
 RS_GRID|   Planes                                 158.0         158         158
 RS_GRID|   Distribution                         Average         Max         Min
 RS_GRID|   Planes                                 158.0         158         158

 RS_GRID| Information for grid number                                          2
 RS_GRID|   Bounds   1            -94      94                Points:         189
 RS_GRID|   Bounds   2           -157     157                Points:         315
 RS_GRID|   Bounds   3           -157     157                Points:         315
 RS_GRID| Real space distribution over                                  4 groups
 RS_GRID| Real space distribution along direction                              1
 RS_GRID| Border size                                                         28
 RS_GRID| Real space distribution over                                  5 groups
 RS_GRID| Real space distribution along direction                              2
 RS_GRID| Border size                                                         28
 RS_GRID| Real space distribution over                                  5 groups
 RS_GRID| Real space distribution along direction                              3
 RS_GRID| Border size                                                         28
 RS_GRID|   Distribution                         Average         Max         Min
 RS_GRID|   Planes                                 103.2         104         103
 RS_GRID|   Distribution                         Average         Max         Min
 RS_GRID|   Planes                                 119.0         119         119
 RS_GRID|   Distribution                         Average         Max         Min
 RS_GRID|   Planes                                 119.0         119         119

 RS_GRID| Information for grid number                                          3
 RS_GRID|   Bounds   1            -55      54                Points:         110
 RS_GRID|   Bounds   2            -90      89                Points:         180
 RS_GRID|   Bounds   3            -90      89                Points:         180
 RS_GRID| Real space fully replicated
 RS_GRID| Group size                                                           1

 RS_GRID| Information for grid number                                          4
 RS_GRID|   Bounds   1            -31      31                Points:          63
 RS_GRID|   Bounds   2            -52      52                Points:         105
 RS_GRID|   Bounds   3            -52      52                Points:         105
 RS_GRID| Real space fully replicated
 RS_GRID| Group size                                                           1

 RS_GRID| Information for grid number                                          5
 RS_GRID|   Bounds   1            -20      19                Points:          40
 RS_GRID|   Bounds   2            -30      29                Points:          60
 RS_GRID|   Bounds   3            -30      29                Points:          60
 RS_GRID| Real space fully replicated
 RS_GRID| Group size                                                           1

 RS_GRID| Information for grid number                                          6
 RS_GRID|   Bounds   1            -10      10                Points:          21
 RS_GRID|   Bounds   2            -17      17                Points:          35
 RS_GRID|   Bounds   3            -17      17                Points:          35
 RS_GRID| Real space fully replicated
 RS_GRID| Group size                                                           1

 RS_GRID| Information for grid number                                          7
 RS_GRID|   Bounds   1             -7       6                Points:          14
 RS_GRID|   Bounds   2            -10       9                Points:          20
 RS_GRID|   Bounds   3            -10       9                Points:          20
 RS_GRID| Real space fully replicated
 RS_GRID| Group size                                                           1

 RS_GRID| Information for grid number                                          8
 RS_GRID|   Bounds   1             -3       3                Points:           7
 RS_GRID|   Bounds   2             -5       5                Points:          11
 RS_GRID|   Bounds   3             -5       5                Points:          11
 RS_GRID| Real space fully replicated
 RS_GRID| Group size                                                           1

 RS_GRID| Information for grid number                                          9
 RS_GRID|   Bounds   1             -2       2                Points:           5
 RS_GRID|   Bounds   2             -3       3                Points:           7
 RS_GRID|   Bounds   3             -3       3                Points:           7
 RS_GRID| Real space fully replicated
 RS_GRID| Group size                                                           1

 RS_GRID| Information for grid number                                         10
 RS_GRID|   Bounds   1             -1       1                Points:           3
 RS_GRID|   Bounds   2             -1       1                Points:           3
 RS_GRID|   Bounds   3             -1       1                Points:           3
 RS_GRID| Real space fully replicated
 RS_GRID| Group size                                                           1

 *******************************************************************************
 ***                     STARTING GEOMETRY OPTIMIZATION                      ***
 ***                           CONJUGATE GRADIENTS                           ***
 *******************************************************************************

 Spin 1

 Number of electrons:                                                        175
 Number of occupied orbitals:                                                175
 Number of molecular orbitals:                                               175

 Spin 2

 Number of electrons:                                                        141
 Number of occupied orbitals:                                                141
 Number of molecular orbitals:                                               141

 Number of orbital functions:                                                441
 Number of independent orbital functions:                                    441

 Extrapolation method: initial_guess


 SCF WAVEFUNCTION OPTIMIZATION

  ----------------------------------- OT ---------------------------------------
  Minimizer      : CG                  : conjugate gradient
  Preconditioner : FULL_KINETIC        : inversion of T + eS
  Precond_solver : DEFAULT
  Line search    : 2PNT                : 2 energies, one gradient
  stepsize       :    0.15000000                  energy_gap     :    0.20000000
  eps_taylor     :   0.10000E-15                  max_taylor     :             4
  ----------------------------------- OT ---------------------------------------

  Step     Update method      Time    Convergence         Total energy    Change
  ------------------------------------------------------------------------------

 *** WARNING in dft_plus_u.F:1457 :: DFT+U energy contibution is negative ***
 *** possibly due to unphysical Mulliken charges. Check your input, if    ***
 *** this warning persists or try a different method!                     ***

     1 OT CG       0.15E+00    8.0     0.00020693     -1335.5794900470 -1.34E+03

 *** WARNING in dft_plus_u.F:1457 :: DFT+U energy contibution is negative ***
 *** possibly due to unphysical Mulliken charges. Check your input, if    ***
 *** this warning persists or try a different method!                     ***

     2 OT LS       0.60E+00    4.7                    -1335.5802867487

 *** WARNING in dft_plus_u.F:1457 :: DFT+U energy contibution is negative ***
 *** possibly due to unphysical Mulliken charges. Check your input, if    ***
 *** this warning persists or try a different method!                     ***

     3 OT CG       0.60E+00    9.3     0.00006966     -1335.5814986728 -2.01E-03

 *** WARNING in dft_plus_u.F:1457 :: DFT+U energy contibution is negative ***
 *** possibly due to unphysical Mulliken charges. Check your input, if    ***
 *** this warning persists or try a different method!                     ***

     4 OT LS       0.69E+00    4.8                    -1335.5817276519

 *** WARNING in dft_plus_u.F:1457 :: DFT+U energy contibution is negative ***
 *** possibly due to unphysical Mulliken charges. Check your input, if    ***
 *** this warning persists or try a different method!                     ***

     5 OT CG       0.69E+00   12.3     0.00005552     -1335.5817315076 -2.33E-04

 *** WARNING in dft_plus_u.F:1457 :: DFT+U energy contibution is negative ***
 *** possibly due to unphysical Mulliken charges. Check your input, if    ***
 *** this warning persists or try a different method!                     ***

     6 OT LS       0.54E+00    5.6                    -1335.5818402783

 *** WARNING in dft_plus_u.F:1457 :: DFT+U energy contibution is negative ***
 *** possibly due to unphysical Mulliken charges. Check your input, if    ***
 *** this warning persists or try a different method!                     ***

     7 OT CG       0.54E+00   10.3     0.00005342     -1335.5818484635 -1.17E-04

 *** WARNING in dft_plus_u.F:1457 :: DFT+U energy contibution is negative ***
 *** possibly due to unphysical Mulliken charges. Check your input, if    ***
 *** this warning persists or try a different method!                     ***

     8 OT LS       0.45E+00    5.0                    -1335.5819343911

 *** WARNING in dft_plus_u.F:1457 :: DFT+U energy contibution is negative ***
 *** possibly due to unphysical Mulliken charges. Check your input, if    ***
 *** this warning persists or try a different method!                     ***

     9 OT CG       0.45E+00    9.2     0.00005054     -1335.5819382160 -8.98E-05

 *** WARNING in dft_plus_u.F:1457 :: DFT+U energy contibution is negative ***
 *** possibly due to unphysical Mulliken charges. Check your input, if    ***
 *** this warning persists or try a different method!                     ***

    10 OT LS       0.56E+00    4.7                    -1335.5820339528

 *** WARNING in dft_plus_u.F:1457 :: DFT+U energy contibution is negative ***
 *** possibly due to unphysical Mulliken charges. Check your input, if    ***
 *** this warning persists or try a different method!                     ***

    11 OT CG       0.56E+00    9.3     0.00005826     -1335.5820375935 -9.94E-05

 *** WARNING in dft_plus_u.F:1457 :: DFT+U energy contibution is negative ***
 *** possibly due to unphysical Mulliken charges. Check your input, if    ***
 *** this warning persists or try a different method!                     ***

    12 OT LS       0.54E+00    4.8                    -1335.5821657985

 *** WARNING in dft_plus_u.F:1457 :: DFT+U energy contibution is negative ***
 *** possibly due to unphysical Mulliken charges. Check your input, if    ***
 *** this warning persists or try a different method!                     ***

    13 OT CG       0.54E+00   11.8     0.00004713     -1335.5821659059 -1.28E-04

 *** WARNING in dft_plus_u.F:1457 :: DFT+U energy contibution is negative ***
 *** possibly due to unphysical Mulliken charges. Check your input, if    ***
 *** this warning persists or try a different method!                     ***

    14 OT LS       0.39E+00    4.6                    -1335.5822178618

 *** WARNING in dft_plus_u.F:1457 :: DFT+U energy contibution is negative ***
 *** possibly due to unphysical Mulliken charges. Check your input, if    ***
 *** this warning persists or try a different method!                     ***

    15 OT CG       0.39E+00   10.8     0.00003455     -1335.5822266970 -6.08E-05

 *** WARNING in dft_plus_u.F:1457 :: DFT+U energy contibution is negative ***
 *** possibly due to unphysical Mulliken charges. Check your input, if    ***
 *** this warning persists or try a different method!                     ***

    16 OT LS       0.37E+00    5.0                    -1335.5822577103

 *** WARNING in dft_plus_u.F:1457 :: DFT+U energy contibution is negative ***
 *** possibly due to unphysical Mulliken charges. Check your input, if    ***
 *** this warning persists or try a different method!                     ***

    17 OT CG       0.37E+00    9.2     0.00002454     -1335.5822577907 -3.11E-05

 *** WARNING in dft_plus_u.F:1457 :: DFT+U energy contibution is negative ***
 *** possibly due to unphysical Mulliken charges. Check your input, if    ***
 *** this warning persists or try a different method!                     ***

    18 OT LS       0.44E+00    4.6                    -1335.5822759751

 *** WARNING in dft_plus_u.F:1457 :: DFT+U energy contibution is negative ***
 *** possibly due to unphysical Mulliken charges. Check your input, if    ***
 *** this warning persists or try a different method!                     ***

    19 OT CG       0.44E+00    9.4     0.00001972     -1335.5822764504 -1.87E-05

 *** WARNING in dft_plus_u.F:1457 :: DFT+U energy contibution is negative ***
 *** possibly due to unphysical Mulliken charges. Check your input, if    ***
 *** this warning persists or try a different method!                     ***

    20 OT LS       0.38E+00    4.8                    -1335.5822864422

 *** WARNING in dft_plus_u.F:1457 :: DFT+U energy contibution is negative ***
 *** possibly due to unphysical Mulliken charges. Check your input, if    ***
 *** this warning persists or try a different method!                     ***

    21 OT CG       0.38E+00    9.3     0.00001143     -1335.5822867428 -1.03E-05

 *** WARNING in dft_plus_u.F:1457 :: DFT+U energy contibution is negative ***
 *** possibly due to unphysical Mulliken charges. Check your input, if    ***
 *** this warning persists or try a different method!                     ***

    22 OT LS       0.45E+00    4.6                    -1335.5822907111

 *** WARNING in dft_plus_u.F:1457 :: DFT+U energy contibution is negative ***
 *** possibly due to unphysical Mulliken charges. Check your input, if    ***
 *** this warning persists or try a different method!                     ***

    23 OT CG       0.45E+00    9.4     0.00000967     -1335.5822908002 -4.06E-06

 *** WARNING in dft_plus_u.F:1457 :: DFT+U energy contibution is negative ***
 *** possibly due to unphysical Mulliken charges. Check your input, if    ***
 *** this warning persists or try a different method!                     ***

    24 OT LS       0.53E+00    4.8                    -1335.5822941693

 *** WARNING in dft_plus_u.F:1457 :: DFT+U energy contibution is negative ***
 *** possibly due to unphysical Mulliken charges. Check your input, if    ***
 *** this warning persists or try a different method!                     ***

    25 OT CG       0.53E+00    9.2     0.00001056     -1335.5822942587 -3.46E-06

 *** WARNING in dft_plus_u.F:1457 :: DFT+U energy contibution is negative ***
 *** possibly due to unphysical Mulliken charges. Check your input, if    ***
 *** this warning persists or try a different method!                     ***

    26 OT LS       0.51E+00    4.6                    -1335.5822982142

 *** WARNING in dft_plus_u.F:1457 :: DFT+U energy contibution is negative ***
 *** possibly due to unphysical Mulliken charges. Check your input, if    ***
 *** this warning persists or try a different method!                     ***

    27 OT CG       0.51E+00    9.2     0.00000995     -1335.5822982214 -3.96E-06

 *** WARNING in dft_plus_u.F:1457 :: DFT+U energy contibution is negative ***
 *** possibly due to unphysical Mulliken charges. Check your input, if    ***
 *** this warning persists or try a different method!                     ***

    28 OT LS       0.46E+00    4.6                    -1335.5823013634

 *** WARNING in dft_plus_u.F:1457 :: DFT+U energy contibution is negative ***
 *** possibly due to unphysical Mulliken charges. Check your input, if    ***
 *** this warning persists or try a different method!                     ***

    29 OT CG       0.46E+00    9.4     0.00000975     -1335.5823013994 -3.18E-06

 *** WARNING in dft_plus_u.F:1457 :: DFT+U energy contibution is negative ***
 *** possibly due to unphysical Mulliken charges. Check your input, if    ***
 *** this warning persists or try a different method!                     ***

    30 OT LS       0.69E+00    4.6                    -1335.5823054740

 *** WARNING in dft_plus_u.F:1457 :: DFT+U energy contibution is negative ***
 *** possibly due to unphysical Mulliken charges. Check your input, if    ***
 *** this warning persists or try a different method!                     ***

    31 OT CG       0.69E+00    9.3     0.00001053     -1335.5823059891 -4.59E-06

 *** WARNING in dft_plus_u.F:1457 :: DFT+U energy contibution is negative ***
 *** possibly due to unphysical Mulliken charges. Check your input, if    ***
 *** this warning persists or try a different method!                     ***

    32 OT LS       0.50E+00    4.6                    -1335.5823092376

 *** WARNING in dft_plus_u.F:1457 :: DFT+U energy contibution is negative ***
 *** possibly due to unphysical Mulliken charges. Check your input, if    ***
 *** this warning persists or try a different method!                     ***

    33 OT CG       0.50E+00    9.5     0.00000915     -1335.5823098318 -3.84E-06

 *** WARNING in dft_plus_u.F:1457 :: DFT+U energy contibution is negative ***
 *** possibly due to unphysical Mulliken charges. Check your input, if    ***
 *** this warning persists or try a different method!                     ***

    34 OT LS       0.46E+00    4.6                    -1335.5823125098

 *** WARNING in dft_plus_u.F:1457 :: DFT+U energy contibution is negative ***
 *** possibly due to unphysical Mulliken charges. Check your input, if    ***
 *** this warning persists or try a different method!                     ***

    35 OT CG       0.46E+00    9.3     0.00000773     -1335.5823125258 -2.69E-06

 *** WARNING in dft_plus_u.F:1457 :: DFT+U energy contibution is negative ***
 *** possibly due to unphysical Mulliken charges. Check your input, if    ***
 *** this warning persists or try a different method!                     ***

    36 OT LS       0.42E+00    5.0                    -1335.5823142824

 *** WARNING in dft_plus_u.F:1457 :: DFT+U energy contibution is negative ***
 *** possibly due to unphysical Mulliken charges. Check your input, if    ***
 *** this warning persists or try a different method!                     ***

    37 OT CG       0.42E+00    9.4     0.00000622     -1335.5823142951 -1.77E-06

 *** WARNING in dft_plus_u.F:1457 :: DFT+U energy contibution is negative ***
 *** possibly due to unphysical Mulliken charges. Check your input, if    ***
 *** this warning persists or try a different method!                     ***

    38 OT LS       0.45E+00    4.6                    -1335.5823155151

 *** WARNING in dft_plus_u.F:1457 :: DFT+U energy contibution is negative ***
 *** possibly due to unphysical Mulliken charges. Check your input, if    ***
 *** this warning persists or try a different method!                     ***

    39 OT CG       0.45E+00    9.3     0.00000502     -1335.5823155200 -1.22E-06

 *** WARNING in dft_plus_u.F:1457 :: DFT+U energy contibution is negative ***
 *** possibly due to unphysical Mulliken charges. Check your input, if    ***
 *** this warning persists or try a different method!                     ***

    40 OT LS       0.42E+00    4.6                    -1335.5823162446

 *** WARNING in dft_plus_u.F:1457 :: DFT+U energy contibution is negative ***
 *** possibly due to unphysical Mulliken charges. Check your input, if    ***
 *** this warning persists or try a different method!                     ***

    41 OT CG       0.42E+00    9.5     0.00000405     -1335.5823162508 -7.31E-07

 *** WARNING in dft_plus_u.F:1457 :: DFT+U energy contibution is negative ***
 *** possibly due to unphysical Mulliken charges. Check your input, if    ***
 *** this warning persists or try a different method!                     ***

    42 OT LS       0.41E+00    4.6                    -1335.5823167191

 *** WARNING in dft_plus_u.F:1457 :: DFT+U energy contibution is negative ***
 *** possibly due to unphysical Mulliken charges. Check your input, if    ***
 *** this warning persists or try a different method!                     ***

    43 OT CG       0.41E+00    9.2     0.00000331     -1335.5823167191 -4.68E-07

 *** WARNING in dft_plus_u.F:1457 :: DFT+U energy contibution is negative ***
 *** possibly due to unphysical Mulliken charges. Check your input, if    ***
 *** this warning persists or try a different method!                     ***

    44 OT LS       0.51E+00    4.6                    -1335.5823170927

 *** WARNING in dft_plus_u.F:1457 :: DFT+U energy contibution is negative ***
 *** possibly due to unphysical Mulliken charges. Check your input, if    ***
 *** this warning persists or try a different method!                     ***

    45 OT CG       0.51E+00    9.4     0.00000311     -1335.5823171065 -3.87E-07

 *** WARNING in dft_plus_u.F:1457 :: DFT+U energy contibution is negative ***
 *** possibly due to unphysical Mulliken charges. Check your input, if    ***
 *** this warning persists or try a different method!                     ***

    46 OT LS       0.47E+00    4.6                    -1335.5823174231

 *** WARNING in dft_plus_u.F:1457 :: DFT+U energy contibution is negative ***
 *** possibly due to unphysical Mulliken charges. Check your input, if    ***
 *** this warning persists or try a different method!                     ***

    47 OT CG       0.47E+00    9.2     0.00000263     -1335.5823174248 -3.18E-07

 *** WARNING in dft_plus_u.F:1457 :: DFT+U energy contibution is negative ***
 *** possibly due to unphysical Mulliken charges. Check your input, if    ***
 *** this warning persists or try a different method!                     ***

    48 OT LS       0.54E+00    4.6                    -1335.5823176824

 *** WARNING in dft_plus_u.F:1457 :: DFT+U energy contibution is negative ***
 *** possibly due to unphysical Mulliken charges. Check your input, if    ***
 *** this warning persists or try a different method!                     ***

    49 OT CG       0.54E+00    9.2     0.00000258     -1335.5823176869 -2.62E-07

 *** WARNING in dft_plus_u.F:1457 :: DFT+U energy contibution is negative ***
 *** possibly due to unphysical Mulliken charges. Check your input, if    ***
 *** this warning persists or try a different method!                     ***

    50 OT LS       0.53E+00    4.8                    -1335.5823179314

 *** WARNING in dft_plus_u.F:1457 :: DFT+U energy contibution is negative ***
 *** possibly due to unphysical Mulliken charges. Check your input, if    ***
 *** this warning persists or try a different method!                     ***

    51 OT CG       0.53E+00    9.3     0.00000252     -1335.5823179318 -2.45E-07

 *** WARNING in dft_plus_u.F:1457 :: DFT+U energy contibution is negative ***
 *** possibly due to unphysical Mulliken charges. Check your input, if    ***
 *** this warning persists or try a different method!                     ***

    52 OT LS       0.49E+00    4.6                    -1335.5823181486

 *** WARNING in dft_plus_u.F:1457 :: DFT+U energy contibution is negative ***
 *** possibly due to unphysical Mulliken charges. Check your input, if    ***
 *** this warning persists or try a different method!                     ***

    53 OT CG       0.49E+00    9.3     0.00000207     -1335.5823181495 -2.18E-07

 *** WARNING in dft_plus_u.F:1457 :: DFT+U energy contibution is negative ***
 *** possibly due to unphysical Mulliken charges. Check your input, if    ***
 *** this warning persists or try a different method!                     ***

    54 OT LS       0.48E+00    4.8                    -1335.5823182922

[...]
 flops     8 x    19 x    13            728116480     100.0%      0.0%      0.0%
 flops    45 x    13 x    45            818812800     100.0%      0.0%      0.0%
 flops    19 x     8 x    15            840134400     100.0%      0.0%      0.0%
 flops     8 x    19 x    15            840134400     100.0%      0.0%      0.0%
 flops    19 x    13 x     2            915858216     100.0%      0.0%      0.0%
 flops     2 x    13 x    19            915858216     100.0%      0.0%      0.0%
 flops    45 x    15 x    45            944784000     100.0%      0.0%      0.0%
 flops    19 x    15 x     2           1035644400     100.0%      0.0%      0.0%
 flops     2 x    15 x    19           1035644400     100.0%      0.0%      0.0%
 flops     8 x     8 x    13           1270097920     100.0%      0.0%      0.0%
 flops    19 x    13 x    19           1450108842     100.0%      0.0%      0.0%
 flops     8 x     8 x    15           1465497600     100.0%      0.0%      0.0%
 flops     8 x    13 x     2           1542498048     100.0%      0.0%      0.0%
 flops     2 x    13 x     8           1542498048     100.0%      0.0%      0.0%
 flops    32 x    32 x    13           1621721088     100.0%      0.0%      0.0%
 flops    13 x    32 x    32           1621721088     100.0%      0.0%      0.0%
 flops    32 x    13 x    32           1621721088     100.0%      0.0%      0.0%
 flops    19 x    15 x    19           1639770300     100.0%      0.0%      0.0%
 flops     8 x    15 x     2           1744243200     100.0%      0.0%      0.0%
 flops     2 x    15 x     8           1744243200     100.0%      0.0%      0.0%
 flops    13 x    32 x    43           1897129728     100.0%      0.0%      0.0%
 flops    32 x    13 x    43           1897129728     100.0%      0.0%      0.0%
 flops    13 x    32 x    44           1941249024     100.0%      0.0%      0.0%
 flops    32 x    13 x    44           1941249024     100.0%      0.0%      0.0%
 flops    19 x    13 x     8           2442288576     100.0%      0.0%      0.0%
 flops     8 x    13 x    19           2442288576     100.0%      0.0%      0.0%
 flops    32 x    32 x    15           2575104000     100.0%      0.0%      0.0%
 flops    15 x    32 x    32           2575104000     100.0%      0.0%      0.0%
 flops    32 x    15 x    32           2575104000     100.0%      0.0%      0.0%
 flops    43 x    13 x    32           2623525632     100.0%      0.0%      0.0%
 flops    43 x    32 x    13           2623525632     100.0%      0.0%      0.0%
 flops    13 x    32 x    45           2647157760     100.0%      0.0%      0.0%
 flops    32 x    13 x    45           2647157760     100.0%      0.0%      0.0%
 flops    44 x    13 x    32           2684537856     100.0%      0.0%      0.0%
 flops    44 x    32 x    13           2684537856     100.0%      0.0%      0.0%
 flops    15 x    32 x    43           2736244800     100.0%      0.0%      0.0%
 flops    32 x    15 x    43           2736244800     100.0%      0.0%      0.0%
 flops    19 x    15 x     8           2761718400     100.0%      0.0%      0.0%
 flops     8 x    15 x    19           2761718400     100.0%      0.0%      0.0%
 flops    15 x    32 x    44           2799878400     100.0%      0.0%      0.0%
 flops    32 x    15 x    44           2799878400     100.0%      0.0%      0.0%
 flops    45 x    32 x    13           3660733440     100.0%      0.0%      0.0%
 flops    45 x    13 x    32           3660733440     100.0%      0.0%      0.0%
 flops    43 x    15 x    32           3783931200     100.0%      0.0%      0.0%
 flops    43 x    32 x    15           3783931200     100.0%      0.0%      0.0%
 flops    15 x    32 x    45           3818016000     100.0%      0.0%      0.0%
 flops    32 x    15 x    45           3818016000     100.0%      0.0%      0.0%
 flops    44 x    15 x    32           3871929600     100.0%      0.0%      0.0%
 flops    44 x    32 x    15           3871929600     100.0%      0.0%      0.0%
 flops     2 x     2 x    32           3911362560     100.0%      0.0%      0.0%
 flops     8 x    13 x     8           4113328128     100.0%      0.0%      0.0%
 flops     8 x    15 x     8           4651315200     100.0%      0.0%      0.0%
 flops    45 x    32 x    15           5279904000     100.0%      0.0%      0.0%
 flops    45 x    15 x    32           5279904000     100.0%      0.0%      0.0%
 flops    19 x     2 x    32           6048967680     100.0%      0.0%      0.0%
 flops     2 x    19 x    32           6048967680     100.0%      0.0%      0.0%
 flops    43 x    32 x    43           9316829952     100.0%      0.0%      0.0%
 flops    43 x    32 x    44           9533500416     100.0%      0.0%      0.0%
 flops    44 x    32 x    43           9533500416     100.0%      0.0%      0.0%
 flops    44 x    32 x    44           9755209728     100.0%      0.0%      0.0%
 flops     8 x     2 x    32          10187735040     100.0%      0.0%      0.0%
 flops     2 x     8 x    32          10187735040     100.0%      0.0%      0.0%
 flops    19 x    19 x    32          10945751040     100.0%      0.0%      0.0%
 flops     2 x    32 x     2          12672350208     100.0%      0.0%      0.0%
 flops    45 x    32 x    43          13000227840     100.0%      0.0%      0.0%
 flops    43 x    32 x    45          13000227840     100.0%      0.0%      0.0%
 flops    45 x    32 x    44          13302558720     100.0%      0.0%      0.0%
 flops    44 x    32 x    45          13302558720     100.0%      0.0%      0.0%
 flops    19 x     8 x    32          16130580480     100.0%      0.0%      0.0%
 flops     8 x    19 x    32          16130580480     100.0%      0.0%      0.0%
 flops    45 x    32 x    45          18139852800     100.0%      0.0%      0.0%
 flops    19 x    32 x     2          20064554496     100.0%      0.0%      0.0%
 flops     2 x    32 x    19          20064554496     100.0%      0.0%      0.0%
 flops     8 x     8 x    32          28137553920     100.0%      0.0%      0.0%
 flops    19 x    32 x    19          31768877952     100.0%      0.0%      0.0%
 flops     8 x    32 x     2          33792933888     100.0%      0.0%      0.0%
 flops     2 x    32 x     8          33792933888     100.0%      0.0%      0.0%
 flops    32 x    32 x    32          43435491328     100.0%      0.0%      0.0%
 flops    32 x    32 x    43          47866042368     100.0%      0.0%      0.0%
 flops    32 x    32 x    44          48979206144     100.0%      0.0%      0.0%
 flops    19 x    32 x     8          53505478656     100.0%      0.0%      0.0%
 flops     8 x    32 x    19          53505478656     100.0%      0.0%      0.0%
 flops    43 x    32 x    32          66193569792     100.0%      0.0%      0.0%
 flops    32 x    32 x    45          66789826560     100.0%      0.0%      0.0%
 flops    44 x    32 x    32          67732955136     100.0%      0.0%      0.0%
 flops     8 x    32 x     8          90114490368     100.0%      0.0%      0.0%
 flops    45 x    32 x    32          92363120640     100.0%      0.0%      0.0%
 flops inhomo. stacks                           0       0.0%      0.0%      0.0%
 flops total                         1.147817E+12     100.0%      0.0%      0.0%
 flops max/rank                     27.759908E+09     100.0%      0.0%      0.0%
 matmuls inhomo. stacks                         0       0.0%      0.0%      0.0%
 matmuls total                          274242369     100.0%      0.0%      0.0%
 number of processed stacks              47761399     100.0%      0.0%      0.0%
 average stack size                                     5.7       0.0       0.0
 marketing flops                     1.265884E+12
 -------------------------------------------------------------------------------
 # multiplications                          40419
 max memory usage/rank             827.863040E+06
 # max total images/rank                        1
 # max 3D layers                                1
 # MPI messages exchanged                72754200
 MPI messages size (bytes):
  total size                       391.993033E+09
  min size                           0.000000E+00
  max size                          16.200000E+03
  average size                       5.387909E+03
 MPI breakdown and total messages size (bytes):
             size <=      128            35504820                        0
       128 < size <=     8192            11362860              68278189752
      8192 < size <=    32768            25886520             323702844696
     32768 < size <=   131072                   0                        0
    131072 < size <=  4194304                   0                        0
   4194304 < size <= 16777216                   0                        0
  16777216 < size                               0                        0
 -------------------------------------------------------------------------------

 MEMORY| Estimated peak process memory [MiB]                                 790

 -------------------------------------------------------------------------------
 ----                             MULTIGRID INFO                            ----
 -------------------------------------------------------------------------------
 count for grid        1:        3831237          cutoff [a.u.]          325.00
 count for grid        2:        1928207          cutoff [a.u.]          108.33
 count for grid        3:        1455925          cutoff [a.u.]           36.11
 count for grid        4:         689280          cutoff [a.u.]           12.04
 count for grid        5:           9000          cutoff [a.u.]            4.01
 count for grid        6:              0          cutoff [a.u.]            1.34
 count for grid        7:              0          cutoff [a.u.]            0.45
 count for grid        8:              0          cutoff [a.u.]            0.15
 count for grid        9:              0          cutoff [a.u.]            0.05
 count for grid       10:              0          cutoff [a.u.]            0.02
 total gridlevel count  :        7913649

 -------------------------------------------------------------------------------
 -                                                                             -
 -                         MESSAGE PASSING PERFORMANCE                         -
 -                                                                             -
 -------------------------------------------------------------------------------

 ROUTINE             CALLS      AVE VOLUME [Bytes]
 MP_Group             1605
 MP_Bcast            13351                  26763.
 MP_Allreduce       243304                     51.
 MP_Sync             44634
 MP_Alltoall        238174                7547408.
 MP_ISendRecv      4417776                  74857.
 MP_Wait           8744074
 MP_ISend          2251924                 100527.
 MP_IRecv          2238372                 100455.
 MP_Recv              2142                  58212.
 MP_Memory         1636650
 -------------------------------------------------------------------------------


 -------------------------------------------------------------------------------
 -                                                                             -
 -                           R E F E R E N C E S                               -
 -                                                                             -
 -------------------------------------------------------------------------------
 
 CP2K version 6.1, the CP2K developers group (2018).
 CP2K is freely available from https://www.cp2k.org/ .

 Schuett, Ole; Messmer, Peter; Hutter, Juerg; VandeVondele, Joost. 
 Electronic Structure Calculations on Graphics Processing Units, John Wiley & Sons, Ltd, 173-190 (2016). 
 GPU-Accelerated Sparse Matrix-Matrix Multiplication for Linear Scaling Density Functional Theory.
 http://dx.doi.org/10.1002/9781118670712.ch8


 Borstnik, U; VandeVondele, J; Weber, V; Hutter, J. 
 PARALLEL COMPUTING, 40 (5-6), 47-58 (2014). 
 Sparse matrix multiplication: The distributed block-compressed sparse
 row library.
 http://dx.doi.org/10.1016/j.parco.2014.03.012


 Hutter, J; Iannuzzi, M; Schiffmann, F; VandeVondele, J. 
 WILEY INTERDISCIPLINARY REVIEWS-COMPUTATIONAL MOLECULAR SCIENCE, 4 (1), 15-25 (2014). 
 CP2K: atomistic simulations of condensed matter systems.
 http://dx.doi.org/10.1002/wcms.1159


 Krack, M. 
 THEORETICAL CHEMISTRY ACCOUNTS, 114 (1-3), 145-152 (2005). 
 Pseudopotentials for H to Kr optimized for gradient-corrected
 exchange-correlation functionals.
 http://dx.doi.org/10.1007/s00214-005-0655-y


 VandeVondele, J; Krack, M; Mohamed, F; Parrinello, M; Chassaing, T;
 Hutter, J. COMPUTER PHYSICS COMMUNICATIONS, 167 (2), 103-128 (2005). 
 QUICKSTEP: Fast and accurate density functional calculations using a
 mixed Gaussian and plane waves approach.
 http://dx.doi.org/10.1016/j.cpc.2004.12.014


 Frigo, M; Johnson, SG. 
 PROCEEDINGS OF THE IEEE, 93 (2), 216-231 (2005). 
 The design and implementation of FFTW3.
 http://dx.doi.org/10.1109/JPROC.2004.840301


 Kolafa, J. 
 JOURNAL OF COMPUTATIONAL CHEMISTRY, 25 (3), 335-342 (2004). 
 Time-reversible always stable predictor-corrector method for molecular dynamics of polarizable molecules.
 http://dx.doi.org/10.1002/jcc.10385


 VandeVondele, J; Hutter, J. 
 JOURNAL OF CHEMICAL PHYSICS, 118 (10), 4365-4369 (2003). 
 An efficient orbital transformation method for electronic structure
 calculations.
 http://dx.doi.org/10.1063/1.1543154


 Hartwigsen, C; Goedecker, S; Hutter, J. 
 PHYSICAL REVIEW B, 58 (7), 3641-3662 (1998). 
 Relativistic separable dual-space Gaussian pseudopotentials from H to Rn.
 http://dx.doi.org/10.1103/PhysRevB.58.3641


 Dudarev, SL; Botton, GA; Savrasov, SY; Humphreys, CJ; Sutton, AP. 
 PHYSICAL REVIEW B, 57 (3), 1505-1509 (1998). 
 Electron-energy-loss spectra and the structural stability of
 nickel oxide: An LSDA+U study.
 http://dx.doi.org/10.1103/PhysRevB.57.1505


 Lippert, G; Hutter, J; Parrinello, M. 
 MOLECULAR PHYSICS, 92 (3), 477-487 (1997). 
 A hybrid Gaussian and plane wave density functional scheme.
 http://dx.doi.org/10.1080/002689797170220


 Dudarev, SL; Manh, DN; Sutton, AP. 
 PHILOSOPHICAL MAGAZINE B, 75 (5), 613-628 (1997). 
 Effect of Mott-Hubbard correlations on the electronic
 structure and structural stability of uranium dioxide.
 http://dx.doi.org/10.1080/13642819708202343


 Goedecker, S; Teter, M; Hutter, J. 
 PHYSICAL REVIEW B, 54 (3), 1703-1710 (1996). 
 Separable dual-space Gaussian pseudopotentials.
 http://dx.doi.org/10.1103/PhysRevB.54.1703


 BECKE, AD. PHYSICAL REVIEW A, 38 (6), 3098-3100 (1988). 
 DENSITY-FUNCTIONAL EXCHANGE-ENERGY APPROXIMATION WITH CORRECT
 ASYMPTOTIC-BEHAVIOR.
 http://dx.doi.org/10.1103/PhysRevA.38.3098


 LEE, CT; YANG, WT; PARR, RG. 
 PHYSICAL REVIEW B, 37 (2), 785-789 (1988). 
 DEVELOPMENT OF THE COLLE-SALVETTI CORRELATION-ENERGY FORMULA INTO A
 FUNCTIONAL OF THE ELECTRON-DENSITY.
 http://dx.doi.org/10.1103/PhysRevB.37.785


 -------------------------------------------------------------------------------
 -                                                                             -
 -                                T I M I N G                                  -
 -                                                                             -
 -------------------------------------------------------------------------------
 SUBROUTINE                       CALLS  ASD         SELF TIME        TOTAL TIME
                                MAXIMUM       AVERAGE  MAXIMUM  AVERAGE  MAXIMUM
 CP2K                                 1  1.0     0.07     0.10 13229.05 13229.05
 cp_geo_opt                           1  2.0     0.00     0.00 13228.17 13228.17
 geoopt_cg                            1  3.0     0.00     0.00 13228.17 13228.17
 cp_cg_main                           1  4.0     0.00     0.01 13228.17 13228.17
 cp_eval_at                          63  6.0     0.01     0.01 13228.12 13228.13
 qs_forces                           62  7.0     0.01     0.01 13130.47 13130.49
 qs_energies                         63  8.0     0.00     0.01 12772.89 12772.90
 scf_env_do_scf                      63  9.0     0.00     0.01 12554.64 12554.64
 scf_env_do_scf_inner_loop         1755 10.0     0.06     0.14 12101.96 12103.37
 pw_transfer                      82754 15.2     5.33     6.95  9188.07  9341.38
 fft_wrap_pw1pw2                  79120 16.3     0.93     1.15  9125.60  9278.55
 rebuild_ks_matrix                 1817 11.9     0.00     0.00  9000.12  9000.54
 qs_ks_build_kohn_sham_matrix      1817 12.9     0.88     1.19  9000.11  9000.54
 fft_wrap_pw1pw2_330              28918 17.7   550.69   562.19  8679.41  8835.64
 qs_ks_update_qs_env               1818 11.0     0.05     0.06  8547.12  8547.55
 fft3d_ps                         79120 18.3  3154.34  3666.40  7461.55  7735.97
 qs_vxc_create                     1817 13.9     0.03     0.04  6770.48  6790.40
 cg_linmin                           31  5.0     0.00     0.00  6505.90  6505.90
 linmin_2pnt                         31  6.0     0.00     0.00  6505.90  6505.90
 xc_vxc_pw_create                   971 14.8    83.66   103.70  4855.37  4875.28
 xc_rho_set_and_dset_create        1817 15.9   139.99   161.38  4044.45  4089.51
 qs_rho_update_rho                 1818 11.0     0.01     0.02  4084.26  4084.54
 calculate_rho_elec                3636 12.0    69.97   175.97  4084.24  4084.53
 density_rs2pw                     3636 13.0     0.45     0.54  3728.06  3816.27
 mp_alltoall_z22v                 79120 20.3  3531.44  3736.49  3531.44  3736.49
 x_to_yz                          21335 20.1   533.42   610.33  2562.76  2617.51
 rs_pw_transfer                   56094 15.0     0.73     0.90  2104.54  2142.85
 xc_exc_calc                        846 15.0     3.86     4.67  1915.07  1915.11
 yz_to_x                          18739 18.8   196.77   231.82  1696.96  1823.22
 sum_up_and_integrate               971 13.8    14.21    17.61  1621.47  1622.56
 integrate_v_rspace                1942 14.8    21.92    45.94  1607.25  1610.55
 potential_pw2rs                   1942 15.8     1.25     1.50  1553.91  1558.54
 pw_scatter_p                     34929 19.4   740.76   793.18   740.76   793.18
 mp_waitany                      355570 16.9   509.69   630.85   509.69   630.85
 rs_pw_transfer_RS2PW_330          3762 15.0   311.67   379.84   555.73   613.27
 mp_waitall_1                   8388504 17.9   439.81   523.27   439.81   523.27
 qs_ks_update_qs_env_forces          62  8.0     0.00     0.00   454.13   454.14
 init_scf_loop                       63 10.0     0.00     0.00   451.04   451.05
 pw_derive                        16728 16.5   382.52   420.28   382.52   420.28
 rs_pw_transfer_PW2RS_330          2130 17.4   207.08   240.96   364.63   381.29
 pw_gather_p                      44191 17.4   347.18   366.78   347.18   366.78
 rs_pw_transfer_RS2PW_40           3636 15.0   142.04   228.51   338.99   362.66
 fft_wrap_pw1pw2_110               5578 17.0    21.13    23.99   312.40   336.42
 rs_pw_transfer_PW2RS_40           1942 17.8   184.39   204.60   290.79   317.78
 rs_pw_transfer_RS2PW_110          3636 15.0   115.32   147.40   257.55   301.85
 -------------------------------------------------------------------------------

 The number of warnings for this run is : 1879
 
 -------------------------------------------------------------------------------
  **** **** ******  **  PROGRAM ENDED AT                 2019-08-08 12:40:57.357
 ***** ** ***  *** **   PROGRAM RAN ON            cpn-p28-08.cbls.ccr.buffalo.ed
 **    ****   ******    PROGRAM RAN BY                                  pavankum
 ***** **    ** ** **   PROGRAM PROCESS ID                                 68312
  **** **  *******  **  PROGRAM STOPPED IN /projects/academic/mdupuis2/pavan/VAB
                                           _calculation/results_for_paper/3.1D_F
                                           e_7units/blyp_plusU8/gopt_state0
