 DBCSR| Multiplication driver                                               BLAS
 DBCSR| Multrec recursion limit                                              512
 DBCSR| Multiplication stack size                                           1000
 DBCSR| Maximum elements for images                                    UNLIMITED
 DBCSR| Multiplicative factor virtual images                                   1
 DBCSR| Multiplication size stacks                                             3
 DBCSR| Number of 3D layers                                               SINGLE
 DBCSR| Use MPI memory allocation                                              T
 DBCSR| Use RMA algorithm                                                      F
 DBCSR| Use Communication thread                                               T
 DBCSR| Communication thread load                                             87


  **** **** ******  **  PROGRAM STARTED AT               2019-08-07 08:34:33.096
 ***** ** ***  *** **   PROGRAM STARTED ON        cpn-u26-29.cbls.ccr.buffalo.ed
 **    ****   ******    PROGRAM STARTED BY                              pavankum
 ***** **    ** ** **   PROGRAM PROCESS ID                                 46431
  **** **  *******  **  PROGRAM STARTED IN /projects/academic/mdupuis2/pavan/VAB
                                           _calculation/results_for_paper/3.1D_F
                                           e_7units/blyp_plusU9/point_0.3

 CP2K| version string:                                          CP2K version 6.1
 CP2K| source code revision number:                                    svn:18464
 CP2K| cp2kflags: libint fftw3 libxc parallel mpi3 scalapack libderiv_max_am1=5 
 CP2K|            libint_max_am=6
 CP2K| is freely available from                            https://www.cp2k.org/
 CP2K| Program compiled at                          Fri Nov 30 14:17:09 EST 2018
 CP2K| Program compiled on                       srv-p22-12.cbls.ccr.buffalo.edu
 CP2K| Program compiled for                                                local
 CP2K| Data directory path    /projects/academic/mdupuis2/pavan/cp2k/cp2k-6.1/da
 CP2K| Input file name                                                 input.inp

 GLOBAL| Force Environment number                                              1
 GLOBAL| Basis set file name            /projects/academic/mdupuis2/pavan/BASIS_
 GLOBAL| Potential file name            /projects/academic/mdupuis2/pavan/POTENT
 GLOBAL| MM Potential file name                                     MM_POTENTIAL
 GLOBAL| Coordinate file name                             intermediate_point.xyz
 GLOBAL| Method name                                                        CP2K
 GLOBAL| Project name                                                      p_fe_
 GLOBAL| Preferred FFT library                                             FFTW3
 GLOBAL| Preferred diagonalization lib.                                       SL
 GLOBAL| Run type                                                         ENERGY
 GLOBAL| All-to-all communication in single precision                          F
 GLOBAL| FFTs using library dependent lengths                                  T
 GLOBAL| Global print level                                               MEDIUM
 GLOBAL| Total number of message passing processes                            48
 GLOBAL| Number of threads for this process                                    1
 GLOBAL| This output is from process                                           0
 GLOBAL| CPU model name :  Intel(R) Xeon(R) Gold 6126 CPU @ 2.60GHz

 MEMORY| system memory details [Kb]
 MEMORY|                        rank 0           min           max       average
 MEMORY| MemTotal            196307064     196307064     196307064     196307064
 MEMORY| MemFree             188462300     188211080     188462300     188336690
 MEMORY| Buffers                501196        500932        501196        501064
 MEMORY| Cached                1223772       1223772       1429140       1326456
 MEMORY| Slab                   617916        617916        621096        619506
 MEMORY| SReclaimable           290104        290104        295324        292714
 MEMORY| MemLikelyFree       190477372     190436476     190477372     190456924


 *** Fundamental physical constants (SI units) ***

 *** Literature: B. J. Mohr and B. N. Taylor,
 ***             CODATA recommended values of the fundamental physical
 ***             constants: 2006, Web Version 5.1
 ***             http://physics.nist.gov/constants

 Speed of light in vacuum [m/s]                             2.99792458000000E+08
 Magnetic constant or permeability of vacuum [N/A**2]       1.25663706143592E-06
 Electric constant or permittivity of vacuum [F/m]          8.85418781762039E-12
 Planck constant (h) [J*s]                                  6.62606896000000E-34
 Planck constant (h-bar) [J*s]                              1.05457162825177E-34
 Elementary charge [C]                                      1.60217648700000E-19
 Electron mass [kg]                                         9.10938215000000E-31
 Electron g factor [ ]                                     -2.00231930436220E+00
 Proton mass [kg]                                           1.67262163700000E-27
 Fine-structure constant                                    7.29735253760000E-03
 Rydberg constant [1/m]                                     1.09737315685270E+07
 Avogadro constant [1/mol]                                  6.02214179000000E+23
 Boltzmann constant [J/K]                                   1.38065040000000E-23
 Atomic mass unit [kg]                                      1.66053878200000E-27
 Bohr radius [m]                                            5.29177208590000E-11

 *** Conversion factors ***

 [u] -> [a.u.]                                              1.82288848426455E+03
 [Angstrom] -> [Bohr] = [a.u.]                              1.88972613288564E+00
 [a.u.] = [Bohr] -> [Angstrom]                              5.29177208590000E-01
 [a.u.] -> [s]                                              2.41888432650478E-17
 [a.u.] -> [fs]                                             2.41888432650478E-02
 [a.u.] -> [J]                                              4.35974393937059E-18
 [a.u.] -> [N]                                              8.23872205491840E-08
 [a.u.] -> [K]                                              3.15774647902944E+05
 [a.u.] -> [kJ/mol]                                         2.62549961709828E+03
 [a.u.] -> [kcal/mol]                                       6.27509468713739E+02
 [a.u.] -> [Pa]                                             2.94210107994716E+13
 [a.u.] -> [bar]                                            2.94210107994716E+08
 [a.u.] -> [atm]                                            2.90362800883016E+08
 [a.u.] -> [eV]                                             2.72113838565563E+01
 [a.u.] -> [Hz]                                             6.57968392072181E+15
 [a.u.] -> [1/cm] (wave numbers)                            2.19474631370540E+05
 [a.u./Bohr**2] -> [1/cm]                                   5.14048714338585E+03
 

 CELL_TOP| Volume [angstrom^3]:                                        26196.625
 CELL_TOP| Vector a [angstrom    21.385     0.000     0.000    |a| =      21.385
 CELL_TOP| Vector b [angstrom     0.000    35.000     0.000    |b| =      35.000
 CELL_TOP| Vector c [angstrom     0.000     0.000    35.000    |c| =      35.000
 CELL_TOP| Angle (b,c), alpha [degree]:                                   90.000
 CELL_TOP| Angle (a,c), beta  [degree]:                                   90.000
 CELL_TOP| Angle (a,b), gamma [degree]:                                   90.000
 CELL_TOP| Numerically orthorhombic:                                         YES

 CELL| Volume [angstrom^3]:                                            26196.625
 CELL| Vector a [angstrom]:      21.385     0.000     0.000    |a| =      21.385
 CELL| Vector b [angstrom]:       0.000    35.000     0.000    |b| =      35.000
 CELL| Vector c [angstrom]:       0.000     0.000    35.000    |c| =      35.000
 CELL| Angle (b,c), alpha [degree]:                                       90.000
 CELL| Angle (a,c), beta  [degree]:                                       90.000
 CELL| Angle (a,b), gamma [degree]:                                       90.000
 CELL| Numerically orthorhombic:                                             YES

 CELL_REF| Volume [angstrom^3]:                                        26196.625
 CELL_REF| Vector a [angstrom    21.385     0.000     0.000    |a| =      21.385
 CELL_REF| Vector b [angstrom     0.000    35.000     0.000    |b| =      35.000
 CELL_REF| Vector c [angstrom     0.000     0.000    35.000    |c| =      35.000
 CELL_REF| Angle (b,c), alpha [degree]:                                   90.000
 CELL_REF| Angle (a,c), beta  [degree]:                                   90.000
 CELL_REF| Angle (a,b), gamma [degree]:                                   90.000
 CELL_REF| Numerically orthorhombic:                                         YES

 *******************************************************************************
 *******************************************************************************
 **                                                                           **
 **     #####                         ##              ##                      **
 **    ##   ##            ##          ##              ##                      **
 **   ##     ##                       ##            ######                    **
 **   ##     ##  ##   ##  ##   #####  ##  ##   ####   ##    #####    #####    **
 **   ##     ##  ##   ##  ##  ##      ## ##   ##      ##   ##   ##  ##   ##   **
 **   ##  ## ##  ##   ##  ##  ##      ####     ###    ##   ######   ######    **
 **    ##  ###   ##   ##  ##  ##      ## ##      ##   ##   ##       ##        **
 **     #######   #####   ##   #####  ##  ##  ####    ##    #####   ##        **
 **           ##                                                    ##        **
 **                                                                           **
 **                                                ... make the atoms dance   **
 **                                                                           **
 **            Copyright (C) by CP2K developers group (2000 - 2018)           **
 **                                                                           **
 *******************************************************************************

 DFT| Spin unrestricted (spin-polarized) Kohn-Sham calculation               UKS
 DFT| Multiplicity                                                            35
 DFT| Number of spin states                                                    2
 DFT| Charge                                                                   6
 DFT| Self-interaction correction (SIC)                                       NO
 DFT| Cutoffs: density                                              1.000000E-10
 DFT|          gradient                                             1.000000E-10
 DFT|          tau                                                  1.000000E-10
 DFT|          cutoff_smoothing_range                               0.000000E+00
 DFT| XC density smoothing                                                  NONE
 DFT| XC derivatives                                                          PW

 DFT+U| Method                                                          MULLIKEN
 DFT+U| Check atomic kind information for details
 FUNCTIONAL| ROUTINE=NEW
 FUNCTIONAL| BECKE88:
 FUNCTIONAL| A. Becke, Phys. Rev. A 38, 3098 (1988) {LSD version}               
 FUNCTIONAL| LYP:
 FUNCTIONAL| C. Lee, W. Yang, R.G. Parr, Phys. Rev. B, 37, 785 (1988) {LSD versi
 FUNCTIONAL| on}                                                                

 QS| Method:                                                                 GPW
 QS| Density plane wave grid type                        NON-SPHERICAL FULLSPACE
 QS| Number of grid levels:                                                   10
 QS| Density cutoff [a.u.]:                                                325.0
 QS| Multi grid cutoff [a.u.]: 1) grid level                               325.0
 QS|                           2) grid level                               108.3
 QS|                           3) grid level                                36.1
 QS|                           4) grid level                                12.0
 QS|                           5) grid level                                 4.0
 QS|                           6) grid level                                 1.3
 QS|                           7) grid level                                 0.4
 QS|                           8) grid level                                 0.1
 QS|                           9) grid level                                 0.0
 QS|                          10) grid level                                 0.0
 QS| Grid level progression factor:                                          3.0
 QS| Relative density cutoff [a.u.]:                                        30.0
 QS| Consistent realspace mapping and integration 
 QS| Interaction thresholds: eps_pgf_orb:                                1.0E-10
 QS|                         eps_filter_matrix:                          0.0E+00
 QS|                         eps_core_charge:                            1.0E-14
 QS|                         eps_rho_gspace:                             1.0E-12
 QS|                         eps_rho_rspace:                             1.0E-12
 QS|                         eps_gvg_rspace:                             1.0E-06
 QS|                         eps_ppl:                                    1.0E-02
 QS|                         eps_ppnl:                                   1.0E-08


 ATOMIC KIND INFORMATION

  1. Atomic kind: Fe                                    Number of atoms:       7

     Orbital Basis Set                                                   mod-DZV

       Number of orbital shell sets:                                           1
       Number of orbital shells:                                               7
       Number of primitive Cartesian functions:                                6
       Number of Cartesian basis functions:                                   21
       Number of spherical basis functions:                                   19
       Norm type:                                                              2

       Normalised Cartesian orbitals:

                        Set   Shell   Orbital            Exponent    Coefficient

                          1       1    2s                8.424366      -0.545589
                                                         4.825220      -0.832336
                                                         2.198939       0.958990
                                                         0.891661       0.416271
                                                         0.316231       0.012631
                                                         0.103474      -0.013505

                          1       2    3s                8.424366      -0.106056
                                                         4.825220      -0.104587
                                                         2.198939       0.052318
                                                         0.891661      -0.169042
                                                         0.316231       0.061854
                                                         0.103474       0.122891

                          1       3    4s                8.424366      -0.333477
                                                         4.825220      -0.289267
                                                         2.198939      -0.125861
                                                         0.891661      -1.004000
                                                         0.316231       0.780774
                                                         0.103474      -0.187846

                          1       4    3px               8.424366      -1.658234
                                                         4.825220       1.618912
                                                         2.198939       1.969078
                                                         0.891661       0.523780
                                                         0.316231       0.024574
                                                         0.103474      -0.000798
                          1       4    3py               8.424366      -1.658234
                                                         4.825220       1.618912
                                                         2.198939       1.969078
                                                         0.891661       0.523780
                                                         0.316231       0.024574
                                                         0.103474      -0.000798
                          1       4    3pz               8.424366      -1.658234
                                                         4.825220       1.618912
                                                         2.198939       1.969078
                                                         0.891661       0.523780
                                                         0.316231       0.024574
                                                         0.103474      -0.000798

                          1       5    4px               8.424366      -0.105249
                                                         4.825220      -0.126123
                                                         2.198939      -0.349657
                                                         0.891661      -0.133470
                                                         0.316231       0.170554
                                                         0.103474       0.054381
                          1       5    4py               8.424366      -0.105249
                                                         4.825220      -0.126123
                                                         2.198939      -0.349657
                                                         0.891661      -0.133470
                                                         0.316231       0.170554
                                                         0.103474       0.054381
                          1       5    4pz               8.424366      -0.105249
                                                         4.825220      -0.126123
                                                         2.198939      -0.349657
                                                         0.891661      -0.133470
                                                         0.316231       0.170554
                                                         0.103474       0.054381

                          1       6    4dx2              8.424366       7.918298
                                                         4.825220       5.112663
                                                         2.198939       2.118663
                                                         0.891661       0.465004
                                                         0.316231       0.065856
                                                         0.103474       0.002769
                          1       6    4dxy              8.424366      13.714895
                                                         4.825220       8.855393
                                                         2.198939       3.669632
                                                         0.891661       0.805411
                                                         0.316231       0.114066
                                                         0.103474       0.004796
                          1       6    4dxz              8.424366      13.714895
                                                         4.825220       8.855393
                                                         2.198939       3.669632
                                                         0.891661       0.805411
                                                         0.316231       0.114066
                                                         0.103474       0.004796
                          1       6    4dy2              8.424366       7.918298
                                                         4.825220       5.112663
                                                         2.198939       2.118663
                                                         0.891661       0.465004
                                                         0.316231       0.065856
                                                         0.103474       0.002769
                          1       6    4dyz              8.424366      13.714895
                                                         4.825220       8.855393
                                                         2.198939       3.669632
                                                         0.891661       0.805411
                                                         0.316231       0.114066
                                                         0.103474       0.004796
                          1       6    4dz2              8.424366       7.918298
                                                         4.825220       5.112663
                                                         2.198939       2.118663
                                                         0.891661       0.465004
                                                         0.316231       0.065856
                                                         0.103474       0.002769

                          1       7    5dx2              8.424366      -4.223614
                                                         4.825220      -1.970584
                                                         2.198939      -1.543490
                                                         0.891661      -0.041381
                                                         0.316231       0.082821
                                                         0.103474       0.021964
                          1       7    5dxy              8.424366      -7.315513
                                                         4.825220      -3.413151
                                                         2.198939      -2.673404
                                                         0.891661      -0.071673
                                                         0.316231       0.143450
                                                         0.103474       0.038042
                          1       7    5dxz              8.424366      -7.315513
                                                         4.825220      -3.413151
                                                         2.198939      -2.673404
                                                         0.891661      -0.071673
                                                         0.316231       0.143450
                                                         0.103474       0.038042
                          1       7    5dy2              8.424366      -4.223614
                                                         4.825220      -1.970584
                                                         2.198939      -1.543490
                                                         0.891661      -0.041381
                                                         0.316231       0.082821
                                                         0.103474       0.021964
                          1       7    5dyz              8.424366      -7.315513
                                                         4.825220      -3.413151
                                                         2.198939      -2.673404
                                                         0.891661      -0.071673
                                                         0.316231       0.143450
                                                         0.103474       0.038042
                          1       7    5dz2              8.424366      -4.223614
                                                         4.825220      -1.970584
                                                         2.198939      -1.543490
                                                         0.891661      -0.041381
                                                         0.316231       0.082821
                                                         0.103474       0.021964

     GTH Potential information for                                  GTH-BLYP-q16

       Description:                       Goedecker-Teter-Hutter pseudopotential
                                           Goedecker et al., PRB 54, 1703 (1996)
                                          Hartwigsen et al., PRB 58, 3641 (1998)
                                                      Krack, TCA 114, 145 (2005)

       Gaussian exponent of the core charge distribution:               3.858025
       Electronic configuration (s p d ...):                           4   6   6

       Parameters of the local part of the GTH pseudopotential:

                          rloc        C1          C2          C3          C4
                        0.360000    7.011025   -0.222747

       Parameters of the non-local part of the GTH pseudopotential:

                   l      r(l)      h(i,j,l)

                   0    0.276205    0.611496    7.992357
                                    7.992357  -10.318089
                   1    0.247130   -8.710556    8.684169
                                    8.684169  -10.275248
                   2    0.223534  -12.411504

     A DFT+U correction is applied to atoms of this atomic kind:
       Angular quantum momentum number L:                                      2
       U(eff) = (U - J) value in [eV]:                                     9.000

  2. Atomic kind: O                                     Number of atoms:      28

     Orbital Basis Set                                                   mod-DZV

       Number of orbital shell sets:                                           1
       Number of orbital shells:                                               4
       Number of primitive Cartesian functions:                                5
       Number of Cartesian basis functions:                                    8
       Number of spherical basis functions:                                    8
       Norm type:                                                              2

       Normalised Cartesian orbitals:

                        Set   Shell   Orbital            Exponent    Coefficient

                          1       1    2s               10.389228       0.396646
                                                         3.849621       0.208811
                                                         1.388401      -0.301641
                                                         0.496955      -0.274061
                                                         0.162492      -0.033677

                          1       2    3s               10.389228       0.303673
                                                         3.849621       0.240943
                                                         1.388401      -0.313066
                                                         0.496955      -0.043055
                                                         0.162492       0.213991

                          1       3    3px              10.389228      -1.530415
                                                         3.849621      -1.371928
                                                         1.388401      -0.761951
                                                         0.496955      -0.253695
                                                         0.162492      -0.035541
                          1       3    3py              10.389228      -1.530415
                                                         3.849621      -1.371928
                                                         1.388401      -0.761951
                                                         0.496955      -0.253695
                                                         0.162492      -0.035541
                          1       3    3pz              10.389228      -1.530415
                                                         3.849621      -1.371928
                                                         1.388401      -0.761951
                                                         0.496955      -0.253695
                                                         0.162492      -0.035541

                          1       4    4px              10.389228      -0.565392
                                                         3.849621      -0.038231
                                                         1.388401      -0.382373
                                                         0.496955       0.179070
                                                         0.162492       0.122714
                          1       4    4py              10.389228      -0.565392
                                                         3.849621      -0.038231
                                                         1.388401      -0.382373
                                                         0.496955       0.179070
                                                         0.162492       0.122714
                          1       4    4pz              10.389228      -0.565392
                                                         3.849621      -0.038231
                                                         1.388401      -0.382373
                                                         0.496955       0.179070
                                                         0.162492       0.122714

     GTH Potential information for                                   GTH-BLYP-q6

       Description:                       Goedecker-Teter-Hutter pseudopotential
                                           Goedecker et al., PRB 54, 1703 (1996)
                                          Hartwigsen et al., PRB 58, 3641 (1998)
                                                      Krack, TCA 114, 145 (2005)

       Gaussian exponent of the core charge distribution:               8.438331
       Electronic configuration (s p d ...):                               2   4

       Parameters of the local part of the GTH pseudopotential:

                          rloc        C1          C2          C3          C4
                        0.243420  -16.991892    2.566142

       Parameters of the non-local part of the GTH pseudopotential:

                   l      r(l)      h(i,j,l)

                   0    0.220831   18.388851
                   1    0.217201

  3. Atomic kind: H                                     Number of atoms:      42

     Orbital Basis Set                                                   mod-DZV

       Number of orbital shell sets:                                           1
       Number of orbital shells:                                               2
       Number of primitive Cartesian functions:                                5
       Number of Cartesian basis functions:                                    2
       Number of spherical basis functions:                                    2
       Norm type:                                                              2

       Normalised Cartesian orbitals:

                        Set   Shell   Orbital            Exponent    Coefficient

                          1       1    2s               10.068468      -0.133023
                                                         2.680223      -0.177618
                                                         0.791502      -0.258419
                                                         0.239116      -0.107525
                                                         0.082193      -0.014019

                          1       2    3s               10.068468       0.344673
                                                         2.680223       1.819821
                                                         0.791502      -0.999069
                                                         0.239116       0.017430
                                                         0.082193       0.082660

     GTH Potential information for                                   GTH-BLYP-q1

       Description:                       Goedecker-Teter-Hutter pseudopotential
                                           Goedecker et al., PRB 54, 1703 (1996)
                                          Hartwigsen et al., PRB 58, 3641 (1998)
                                                      Krack, TCA 114, 145 (2005)

       Gaussian exponent of the core charge distribution:              12.500000
       Electronic configuration (s p d ...):                                   1

       Parameters of the local part of the GTH pseudopotential:

                          rloc        C1          C2          C3          C4
                        0.200000   -4.195961    0.730498


 MOLECULE KIND INFORMATION


 All atoms are their own molecule, skipping detailed information


 TOTAL NUMBERS AND MAXIMUM NUMBERS

  Total number of            - Atomic kinds:                                   3
                             - Atoms:                                         77
                             - Shell sets:                                    77
                             - Shells:                                       245
                             - Primitive Cartesian functions:                392
                             - Cartesian basis functions:                    455
                             - Spherical basis functions:                    441

  Maximum angular momentum of- Orbital basis functions:                        2
                             - Local part of the GTH pseudopotential:          2
                             - Non-local part of the GTH pseudopotential:      3


 MODULE QUICKSTEP:  ATOMIC COORDINATES IN angstrom

  Atom  Kind  Element       X           Y           Z          Z(eff)       Mass

       1     1 Fe  26   18.339379   -0.000069   -0.000337     16.00      55.8450
       2     1 Fe  26   15.285040    0.000065    0.001054     16.00      55.8450
       3     1 Fe  26   12.209030   -0.000199    0.000192     16.00      55.8450
       4     1 Fe  26    9.147675    0.004357    0.000296     16.00      55.8450
       5     1 Fe  26    6.133274    0.009969    0.000053     16.00      55.8450
       6     1 Fe  26    3.097544   -0.000068   -0.000352     16.00      55.8450
       7     1 Fe  26    0.017361   -0.000275    0.000145     16.00      55.8450
       8     2 O    8   18.316588    0.012902    2.077106      6.00      15.9994
       9     2 O    8   18.315583   -0.013028   -2.077803      6.00      15.9994
      10     2 O    8   19.859725   -1.210156    0.009295      6.00      15.9994
      11     2 O    8   19.859658    1.209887   -0.009426      6.00      15.9994
      12     2 O    8   15.283063    0.013317    2.085706      6.00      15.9994
      13     2 O    8   15.275029   -0.012956   -2.083962      6.00      15.9994
      14     2 O    8   16.814975   -1.211918    0.010365      6.00      15.9994
      15     2 O    8   16.815050    1.211866   -0.010618      6.00      15.9994
      16     2 O    8   12.246248    0.028549    2.103815      6.00      15.9994
      17     2 O    8   12.246418   -0.029049   -2.102731      6.00      15.9994
      18     2 O    8   13.771517   -1.208018    0.018807      6.00      15.9994
      19     2 O    8   13.772028    1.208054   -0.011917      6.00      15.9994
      20     2 O    8    9.212002   -0.010964    2.133970      6.00      15.9994
      21     2 O    8    9.212252    0.027337   -2.133508      6.00      15.9994
      22     2 O    8   10.751790   -1.222786    0.006512      6.00      15.9994
      23     2 O    8   10.755635    1.224915   -0.006638      6.00      15.9994
      24     2 O    8    6.106641    0.025525    2.154331      6.00      15.9994
      25     2 O    8    6.106943    0.015937   -2.154791      6.00      15.9994
      26     2 O    8    7.691183   -1.259051   -0.009796      6.00      15.9994
      27     2 O    8    7.695074    1.266942    0.010216      6.00      15.9994
      28     2 O    8    3.017451   -0.029987    2.108920      6.00      15.9994
      29     2 O    8    3.017309    0.029124   -2.109452      6.00      15.9994
      30     2 O    8    4.510924   -1.243180   -0.018591      6.00      15.9994
      31     2 O    8    4.503512    1.248482    0.017503      6.00      15.9994
      32     2 O    8   -0.023922    0.009923    2.091747      6.00      15.9994
      33     2 O    8   -0.023861   -0.010414   -2.092203      6.00      15.9994
      34     2 O    8    1.516456   -1.206908   -0.012824      6.00      15.9994
      35     2 O    8    1.515642    1.206466    0.012654      6.00      15.9994
      36     3 H    1   18.345165   -0.826952   -2.639277      1.00       1.0079
      37     3 H    1   18.330542    0.797239   -2.645511      1.00       1.0079
      38     3 H    1   18.328054   -0.797378    2.644575      1.00       1.0079
      39     3 H    1   18.344591    0.826740    2.638278      1.00       1.0079
      40     3 H    1   19.867080   -2.198217    0.011498      1.00       1.0079
      41     3 H    1   19.867221    2.197921   -0.011827      1.00       1.0079
      42     3 H    1   15.156712   -0.825804   -2.638256      1.00       1.0079
      43     3 H    1   15.153737    0.797228   -2.639579      1.00       1.0079
      44     3 H    1   15.160937   -0.796485    2.641352      1.00       1.0079
      45     3 H    1   15.160595    0.826435    2.638525      1.00       1.0079
      46     3 H    1   16.810601   -2.199949    0.011180      1.00       1.0079
      47     3 H    1   16.810688    2.199891   -0.012976      1.00       1.0079
      48     3 H    1   12.036192   -0.845019   -2.625700      1.00       1.0079
      49     3 H    1   12.045022    0.775993   -2.645885      1.00       1.0079
      50     3 H    1   12.052974   -0.777795    2.648063      1.00       1.0079
      51     3 H    1   12.029583    0.843007    2.626433      1.00       1.0079
      52     3 H    1   13.752673   -2.195697    0.020224      1.00       1.0079
      53     3 H    1   13.753008    2.195709   -0.013768      1.00       1.0079
      54     3 H    1    9.050474   -0.776059   -2.681626      1.00       1.0079
      55     3 H    1    9.068137    0.847883   -2.663245      1.00       1.0079
      56     3 H    1    9.075636   -0.831679    2.666275      1.00       1.0079
      57     3 H    1    9.043268    0.791894    2.679678      1.00       1.0079
      58     3 H    1   10.719633   -2.209019    0.009195      1.00       1.0079
      59     3 H    1   10.727076    2.211229   -0.007769      1.00       1.0079
      60     3 H    1    6.147660   -0.800011   -2.709297      1.00       1.0079
      61     3 H    1    6.161382    0.825243   -2.714257      1.00       1.0079
      62     3 H    1    6.158803   -0.778199    2.722432      1.00       1.0079
      63     3 H    1    6.149365    0.847147    2.699886      1.00       1.0079
      64     3 H    1    7.680363   -2.243994   -0.012515      1.00       1.0079
      65     3 H    1    7.688516    2.252229    0.012254      1.00       1.0079
      66     3 H    1    3.206046   -0.776374   -2.656120      1.00       1.0079
      67     3 H    1    3.201572    0.847562   -2.638160      1.00       1.0079
      68     3 H    1    3.194081   -0.849554    2.638497      1.00       1.0079
      69     3 H    1    3.212293    0.774236    2.655062      1.00       1.0079
      70     3 H    1    4.540254   -2.228723   -0.021959      1.00       1.0079
      71     3 H    1    4.525345    2.234276    0.020342      1.00       1.0079
      72     3 H    1    0.136095   -0.822942   -2.634415      1.00       1.0079
      73     3 H    1    0.109755    0.799150   -2.648414      1.00       1.0079
      74     3 H    1    0.103714   -0.800423    2.648268      1.00       1.0079
      75     3 H    1    0.138769    0.821414    2.634184      1.00       1.0079
      76     3 H    1    1.542787   -2.194108   -0.010664      1.00       1.0079
      77     3 H    1    1.541636    2.193648    0.010723      1.00       1.0079




 SCF PARAMETERS         Density guess:                                   RESTART
                        --------------------------------------------------------
                        max_scf:                                            1000
                        max_scf_history:                                       0
                        max_diis:                                              4
                        --------------------------------------------------------
                        eps_scf:                                        1.00E-06
                        eps_scf_history:                                0.00E+00
                        eps_diis:                                       1.00E-01
                        eps_eigval:                                     1.00E-05
                        --------------------------------------------------------
                        level_shift [a.u.]:                                 0.00
                        --------------------------------------------------------
                        Outer loop SCF in use 
                        No variables optimised in outer loop
                        eps_scf                                         1.00E-06
                        max_scf                                              500
                        No outer loop optimization
                        step_size                                       5.00E-01

 PW_GRID| Information for grid number                                          1
 PW_GRID| Grid distributed over                                    48 processors
 PW_GRID| Real space group dimensions                                    48    1
 PW_GRID| the grid is blocked:                                                NO
 PW_GRID| Cutoff [a.u.]                                                    325.0
 PW_GRID| spherical cutoff:                                                   NO
 PW_GRID|   Bounds   1           -165     164                Points:         330
 PW_GRID|   Bounds   2           -270     269                Points:         540
 PW_GRID|   Bounds   3           -270     269                Points:         540
 PW_GRID| Volume element (a.u.^3)  0.1837E-02     Volume (a.u.^3)    176783.5904
 PW_GRID| Grid span                                                    FULLSPACE
 PW_GRID|   Distribution                         Average         Max         Min
 PW_GRID|   G-Vectors                          2004750.0     2004750     2004750
 PW_GRID|   G-Rays                                6075.0        6075        6075
 PW_GRID|   Real Space Points                  2004750.0     2041200     1749600

 PW_GRID| Information for grid number                                          2
 PW_GRID| Grid distributed over                                    48 processors
 PW_GRID| Real space group dimensions                                    48    1
 PW_GRID| the grid is blocked:                                                NO
 PW_GRID| Cutoff [a.u.]                                                    108.3
 PW_GRID| spherical cutoff:                                                   NO
 PW_GRID|   Bounds   1            -94      94                Points:         189
 PW_GRID|   Bounds   2           -157     157                Points:         315
 PW_GRID|   Bounds   3           -157     157                Points:         315
 PW_GRID| Volume element (a.u.^3)  0.9427E-02     Volume (a.u.^3)    176783.5904
 PW_GRID| Grid span                                                    FULLSPACE
 PW_GRID|   Distribution                         Average         Max         Min
 PW_GRID|   G-Vectors                           390698.4      391230      390285
 PW_GRID|   G-Rays                                2067.2        2070        2065
 PW_GRID|   Real Space Points                   390698.4      396900      297675

 PW_GRID| Information for grid number                                          3
 PW_GRID| Grid distributed over                                    48 processors
 PW_GRID| Real space group dimensions                                    48    1
 PW_GRID| the grid is blocked:                                                NO
 PW_GRID| Cutoff [a.u.]                                                     36.1
 PW_GRID| spherical cutoff:                                                   NO
 PW_GRID|   Bounds   1            -55      54                Points:         110
 PW_GRID|   Bounds   2            -90      89                Points:         180
 PW_GRID|   Bounds   3            -90      89                Points:         180
 PW_GRID| Volume element (a.u.^3)  0.4960E-01     Volume (a.u.^3)    176783.5904
 PW_GRID| Grid span                                                    FULLSPACE
 PW_GRID|   Distribution                         Average         Max         Min
 PW_GRID|   G-Vectors                            74250.0       74360       74140
 PW_GRID|   G-Rays                                 675.0         676         674
 PW_GRID|   Real Space Points                    74250.0       97200       64800

 PW_GRID| Information for grid number                                          4
 PW_GRID| Grid distributed over                                    48 processors
 PW_GRID| Real space group dimensions                                    48    1
 PW_GRID| the grid is blocked:                                                NO
 PW_GRID| Cutoff [a.u.]                                                     12.0
 PW_GRID| spherical cutoff:                                                   NO
 PW_GRID|   Bounds   1            -31      31                Points:          63
 PW_GRID|   Bounds   2            -52      52                Points:         105
 PW_GRID|   Bounds   3            -52      52                Points:         105
 PW_GRID| Volume element (a.u.^3)  0.2545         Volume (a.u.^3)    176783.5904
 PW_GRID| Grid span                                                    FULLSPACE
 PW_GRID|   Distribution                         Average         Max         Min
 PW_GRID|   G-Vectors                            14470.3       14553       14427
 PW_GRID|   G-Rays                                 229.7         231         229
 PW_GRID|   Real Space Points                    14470.3       22050       11025

 PW_GRID| Information for grid number                                          5
 PW_GRID| Grid distributed over                                    48 processors
 PW_GRID| Real space group dimensions                                     6    8
 PW_GRID| the grid is blocked:                                                NO
 PW_GRID| Cutoff [a.u.]                                                      4.0
 PW_GRID| spherical cutoff:                                                   NO
 PW_GRID|   Bounds   1            -20      19                Points:          40
 PW_GRID|   Bounds   2            -30      29                Points:          60
 PW_GRID|   Bounds   3            -30      29                Points:          60
 PW_GRID| Volume element (a.u.^3)   1.228         Volume (a.u.^3)    176783.5904
 PW_GRID| Grid span                                                    FULLSPACE
 PW_GRID|   Distribution                         Average         Max         Min
 PW_GRID|   G-Vectors                             3000.0        3040        2960
 PW_GRID|   G-Rays                                  75.0          76          74
 PW_GRID|   Real Space Points                     3000.0        3360        2520

 PW_GRID| Information for grid number                                          6
 PW_GRID| Grid distributed over                                    48 processors
 PW_GRID| Real space group dimensions                                     6    8
 PW_GRID| the grid is blocked:                                                NO
 PW_GRID| Cutoff [a.u.]                                                      1.3
 PW_GRID| spherical cutoff:                                                   NO
 PW_GRID|   Bounds   1            -10      10                Points:          21
 PW_GRID|   Bounds   2            -17      17                Points:          35
 PW_GRID|   Bounds   3            -17      17                Points:          35
 PW_GRID| Volume element (a.u.^3)   6.872         Volume (a.u.^3)    176783.5904
 PW_GRID| Grid span                                                    FULLSPACE
 PW_GRID|   Distribution                         Average         Max         Min
 PW_GRID|   G-Vectors                              535.9         567         504
 PW_GRID|   G-Rays                                  25.5          27          24
 PW_GRID|   Real Space Points                      535.9         700         420

 PW_GRID| Information for grid number                                          7
 PW_GRID| Grid distributed over                                    48 processors
 PW_GRID| Real space group dimensions                                     6    8
 PW_GRID| the grid is blocked:                                                NO
 PW_GRID| Cutoff [a.u.]                                                      0.4
 PW_GRID| spherical cutoff:                                                   NO
 PW_GRID|   Bounds   1             -7       6                Points:          14
 PW_GRID|   Bounds   2            -10       9                Points:          20
 PW_GRID|   Bounds   3            -10       9                Points:          20
 PW_GRID| Volume element (a.u.^3)   31.57         Volume (a.u.^3)    176783.5904
 PW_GRID| Grid span                                                    FULLSPACE
 PW_GRID|   Distribution                         Average         Max         Min
 PW_GRID|   G-Vectors                              116.7         140          98
 PW_GRID|   G-Rays                                   8.3          10           7
 PW_GRID|   Real Space Points                      116.7         180          80

 PW_GRID| Information for grid number                                          8
 PW_GRID| Grid distributed over                                    48 processors
 PW_GRID| Real space group dimensions                                     6    8
 PW_GRID| the grid is blocked:                                                NO
 PW_GRID| Cutoff [a.u.]                                                      0.1
 PW_GRID| spherical cutoff:                                                   NO
 PW_GRID|   Bounds   1             -3       3                Points:           7
 PW_GRID|   Bounds   2             -5       5                Points:          11
 PW_GRID|   Bounds   3             -5       5                Points:          11
 PW_GRID| Volume element (a.u.^3)   208.7         Volume (a.u.^3)    176783.5904
 PW_GRID| Grid span                                                    FULLSPACE
 PW_GRID|   Distribution                         Average         Max         Min
 PW_GRID|   G-Vectors                               17.6          28           7
 PW_GRID|   G-Rays                                   2.5           4           1
 PW_GRID|   Real Space Points                       17.6          44          11

 PW_GRID| Information for grid number                                          9
 PW_GRID| Grid distributed over                                    48 processors
 PW_GRID| Real space group dimensions                                     6    8
 PW_GRID| the grid is blocked:                                                NO
 PW_GRID| Cutoff [a.u.]                                                      0.0
 PW_GRID| spherical cutoff:                                                   NO
 PW_GRID|   Bounds   1             -2       2                Points:           5
 PW_GRID|   Bounds   2             -3       3                Points:           7
 PW_GRID|   Bounds   3             -3       3                Points:           7
 PW_GRID| Volume element (a.u.^3)   721.6         Volume (a.u.^3)    176783.5904
 PW_GRID| Grid span                                                    FULLSPACE
 PW_GRID|   Distribution                         Average         Max         Min
 PW_GRID|   G-Vectors                                5.1          10           0
 PW_GRID|   G-Rays                                   1.0           2           0
 PW_GRID|   Real Space Points                        5.1           7           0

 PW_GRID| Information for grid number                                         10
 PW_GRID| Grid distributed over                                    48 processors
 PW_GRID| Real space group dimensions                                     6    8
 PW_GRID| the grid is blocked:                                                NO
 PW_GRID| Cutoff [a.u.]                                                      0.0
 PW_GRID| spherical cutoff:                                                   NO
 PW_GRID|   Bounds   1             -1       1                Points:           3
 PW_GRID|   Bounds   2             -1       1                Points:           3
 PW_GRID|   Bounds   3             -1       1                Points:           3
 PW_GRID| Volume element (a.u.^3)   6548.         Volume (a.u.^3)    176783.5904
 PW_GRID| Grid span                                                    FULLSPACE
 PW_GRID|   Distribution                         Average         Max         Min
 PW_GRID|   G-Vectors                                0.6           3           0
 PW_GRID|   G-Rays                                   0.2           1           0
 PW_GRID|   Real Space Points                        0.6           3           0

 POISSON| Solver                                                        PERIODIC
 POISSON| Periodicity                                                        XYZ

 RS_GRID| Information for grid number                                          1
 RS_GRID|   Bounds   1           -165     164                Points:         330
 RS_GRID|   Bounds   2           -270     269                Points:         540
 RS_GRID|   Bounds   3           -270     269                Points:         540
 RS_GRID| Real space distribution over                                  6 groups
 RS_GRID| Real space distribution along direction                              2
 RS_GRID| Border size                                                         25
 RS_GRID| Real space distribution over                                  8 groups
 RS_GRID| Real space distribution along direction                              3
 RS_GRID| Border size                                                         25
 RS_GRID|   Distribution                         Average         Max         Min
 RS_GRID|   Planes                                 140.0         140         140
 RS_GRID|   Distribution                         Average         Max         Min
 RS_GRID|   Planes                                 117.5         118         117

 RS_GRID| Information for grid number                                          2
 RS_GRID|   Bounds   1            -94      94                Points:         189
 RS_GRID|   Bounds   2           -157     157                Points:         315
 RS_GRID|   Bounds   3           -157     157                Points:         315
 RS_GRID| Real space distribution over                                  6 groups
 RS_GRID| Real space distribution along direction                              2
 RS_GRID| Border size                                                         28
 RS_GRID| Real space distribution over                                  8 groups
 RS_GRID| Real space distribution along direction                              3
 RS_GRID| Border size                                                         28
 RS_GRID|   Distribution                         Average         Max         Min
 RS_GRID|   Planes                                 108.5         109         108
 RS_GRID|   Distribution                         Average         Max         Min
 RS_GRID|   Planes                                  95.4          96          95

 RS_GRID| Information for grid number                                          3
 RS_GRID|   Bounds   1            -55      54                Points:         110
 RS_GRID|   Bounds   2            -90      89                Points:         180
 RS_GRID|   Bounds   3            -90      89                Points:         180
 RS_GRID| Real space fully replicated
 RS_GRID| Group size                                                           1

 RS_GRID| Information for grid number                                          4
 RS_GRID|   Bounds   1            -31      31                Points:          63
 RS_GRID|   Bounds   2            -52      52                Points:         105
 RS_GRID|   Bounds   3            -52      52                Points:         105
 RS_GRID| Real space fully replicated
 RS_GRID| Group size                                                           1

 RS_GRID| Information for grid number                                          5
 RS_GRID|   Bounds   1            -20      19                Points:          40
 RS_GRID|   Bounds   2            -30      29                Points:          60
 RS_GRID|   Bounds   3            -30      29                Points:          60
 RS_GRID| Real space fully replicated
 RS_GRID| Group size                                                           1

 RS_GRID| Information for grid number                                          6
 RS_GRID|   Bounds   1            -10      10                Points:          21
 RS_GRID|   Bounds   2            -17      17                Points:          35
 RS_GRID|   Bounds   3            -17      17                Points:          35
 RS_GRID| Real space fully replicated
 RS_GRID| Group size                                                           1

 RS_GRID| Information for grid number                                          7
 RS_GRID|   Bounds   1             -7       6                Points:          14
 RS_GRID|   Bounds   2            -10       9                Points:          20
 RS_GRID|   Bounds   3            -10       9                Points:          20
 RS_GRID| Real space fully replicated
 RS_GRID| Group size                                                           1

 RS_GRID| Information for grid number                                          8
 RS_GRID|   Bounds   1             -3       3                Points:           7
 RS_GRID|   Bounds   2             -5       5                Points:          11
 RS_GRID|   Bounds   3             -5       5                Points:          11
 RS_GRID| Real space fully replicated
 RS_GRID| Group size                                                           1

 RS_GRID| Information for grid number                                          9
 RS_GRID|   Bounds   1             -2       2                Points:           5
 RS_GRID|   Bounds   2             -3       3                Points:           7
 RS_GRID|   Bounds   3             -3       3                Points:           7
 RS_GRID| Real space fully replicated
 RS_GRID| Group size                                                           1

 RS_GRID| Information for grid number                                         10
 RS_GRID|   Bounds   1             -1       1                Points:           3
 RS_GRID|   Bounds   2             -1       1                Points:           3
 RS_GRID|   Bounds   3             -1       1                Points:           3
 RS_GRID| Real space fully replicated
 RS_GRID| Group size                                                           1

 Spin 1

 Number of electrons:                                                        175
 Number of occupied orbitals:                                                175
 Number of molecular orbitals:                                               175

 Spin 2

 Number of electrons:                                                        141
 Number of occupied orbitals:                                                141
 Number of molecular orbitals:                                               141

 Number of orbital functions:                                                441
 Number of independent orbital functions:                                    441

 Extrapolation method: initial_guess


 SCF WAVEFUNCTION OPTIMIZATION

  ----------------------------------- OT ---------------------------------------
  Minimizer      : CG                  : conjugate gradient
  Preconditioner : FULL_KINETIC        : inversion of T + eS
  Precond_solver : DEFAULT
  Line search    : 2PNT                : 2 energies, one gradient
  stepsize       :    0.15000000                  energy_gap     :    0.20000000
  eps_taylor     :   0.10000E-15                  max_taylor     :             4
  ----------------------------------- OT ---------------------------------------

  Step     Update method      Time    Convergence         Total energy    Change
  ------------------------------------------------------------------------------

 *** WARNING in dft_plus_u.F:1457 :: DFT+U energy contibution is negative ***
 *** possibly due to unphysical Mulliken charges. Check your input, if    ***
 *** this warning persists or try a different method!                     ***

     1 OT CG       0.15E+00    6.5     0.00032820     -1335.6009907734 -1.34E+03

 *** WARNING in dft_plus_u.F:1457 :: DFT+U energy contibution is negative ***
 *** possibly due to unphysical Mulliken charges. Check your input, if    ***
 *** this warning persists or try a different method!                     ***

     2 OT LS       0.60E+00    4.1                    -1335.6030465552

 *** WARNING in dft_plus_u.F:1457 :: DFT+U energy contibution is negative ***
 *** possibly due to unphysical Mulliken charges. Check your input, if    ***
 *** this warning persists or try a different method!                     ***

     3 OT CG       0.60E+00    8.2     0.00016639     -1335.6068645888 -5.87E-03

 *** WARNING in dft_plus_u.F:1457 :: DFT+U energy contibution is negative ***
 *** possibly due to unphysical Mulliken charges. Check your input, if    ***
 *** this warning persists or try a different method!                     ***

     4 OT LS       0.71E+00    3.9                    -1335.6081972334

 *** WARNING in dft_plus_u.F:1457 :: DFT+U energy contibution is negative ***
 *** possibly due to unphysical Mulliken charges. Check your input, if    ***
 *** this warning persists or try a different method!                     ***

     5 OT CG       0.71E+00    8.1     0.00017588     -1335.6082284956 -1.36E-03

 *** WARNING in dft_plus_u.F:1457 :: DFT+U energy contibution is negative ***
 *** possibly due to unphysical Mulliken charges. Check your input, if    ***
 *** this warning persists or try a different method!                     ***

     6 OT LS       0.43E+00    4.0                    -1335.6087784579

 *** WARNING in dft_plus_u.F:1457 :: DFT+U energy contibution is negative ***
 *** possibly due to unphysical Mulliken charges. Check your input, if    ***
 *** this warning persists or try a different method!                     ***

     7 OT CG       0.43E+00    8.0     0.00011326     -1335.6091582655 -9.30E-04

 *** WARNING in dft_plus_u.F:1457 :: DFT+U energy contibution is negative ***
 *** possibly due to unphysical Mulliken charges. Check your input, if    ***
 *** this warning persists or try a different method!                     ***

     8 OT LS       0.31E+00    4.0                    -1335.6093993215

 *** WARNING in dft_plus_u.F:1457 :: DFT+U energy contibution is negative ***
 *** possibly due to unphysical Mulliken charges. Check your input, if    ***
 *** this warning persists or try a different method!                     ***

     9 OT CG       0.31E+00    7.9     0.00007219     -1335.6094387028 -2.80E-04

 *** WARNING in dft_plus_u.F:1457 :: DFT+U energy contibution is negative ***
 *** possibly due to unphysical Mulliken charges. Check your input, if    ***
 *** this warning persists or try a different method!                     ***

    10 OT LS       0.41E+00    4.1                    -1335.6095796463

 *** WARNING in dft_plus_u.F:1457 :: DFT+U energy contibution is negative ***
 *** possibly due to unphysical Mulliken charges. Check your input, if    ***
 *** this warning persists or try a different method!                     ***

    11 OT CG       0.41E+00    7.9     0.00006128     -1335.6095880513 -1.49E-04

 *** WARNING in dft_plus_u.F:1457 :: DFT+U energy contibution is negative ***
 *** possibly due to unphysical Mulliken charges. Check your input, if    ***
 *** this warning persists or try a different method!                     ***

    12 OT LS       0.51E+00    4.1                    -1335.6097170790

 *** WARNING in dft_plus_u.F:1457 :: DFT+U energy contibution is negative ***
 *** possibly due to unphysical Mulliken charges. Check your input, if    ***
 *** this warning persists or try a different method!                     ***

    13 OT CG       0.51E+00    8.0     0.00005049     -1335.6097223867 -1.34E-04

 *** WARNING in dft_plus_u.F:1457 :: DFT+U energy contibution is negative ***
 *** possibly due to unphysical Mulliken charges. Check your input, if    ***
 *** this warning persists or try a different method!                     ***

    14 OT LS       0.33E+00    3.9                    -1335.6097641710

 *** WARNING in dft_plus_u.F:1457 :: DFT+U energy contibution is negative ***
 *** possibly due to unphysical Mulliken charges. Check your input, if    ***
 *** this warning persists or try a different method!                     ***

    15 OT CG       0.33E+00    8.0     0.00003360     -1335.6097815280 -5.91E-05

 *** WARNING in dft_plus_u.F:1457 :: DFT+U energy contibution is negative ***
 *** possibly due to unphysical Mulliken charges. Check your input, if    ***
 *** this warning persists or try a different method!                     ***

    16 OT LS       0.49E+00    4.0                    -1335.6098160776

 *** WARNING in dft_plus_u.F:1457 :: DFT+U energy contibution is negative ***
 *** possibly due to unphysical Mulliken charges. Check your input, if    ***
 *** this warning persists or try a different method!                     ***

    17 OT CG       0.49E+00    8.1     0.00003408     -1335.6098199868 -3.85E-05

 *** WARNING in dft_plus_u.F:1457 :: DFT+U energy contibution is negative ***
 *** possibly due to unphysical Mulliken charges. Check your input, if    ***
 *** this warning persists or try a different method!                     ***

    18 OT LS       0.59E+00    4.0                    -1335.6098665132

 *** WARNING in dft_plus_u.F:1457 :: DFT+U energy contibution is negative ***
 *** possibly due to unphysical Mulliken charges. Check your input, if    ***
 *** this warning persists or try a different method!                     ***

    19 OT CG       0.59E+00    8.0     0.00003536     -1335.6098679970 -4.80E-05

 *** WARNING in dft_plus_u.F:1457 :: DFT+U energy contibution is negative ***
 *** possibly due to unphysical Mulliken charges. Check your input, if    ***
 *** this warning persists or try a different method!                     ***

    20 OT LS       0.52E+00    4.1                    -1335.6099122008

 *** WARNING in dft_plus_u.F:1457 :: DFT+U energy contibution is negative ***
 *** possibly due to unphysical Mulliken charges. Check your input, if    ***
 *** this warning persists or try a different method!                     ***

    21 OT CG       0.52E+00    8.0     0.00003199     -1335.6099131423 -4.51E-05

 *** WARNING in dft_plus_u.F:1457 :: DFT+U energy contibution is negative ***
 *** possibly due to unphysical Mulliken charges. Check your input, if    ***
 *** this warning persists or try a different method!                     ***

    22 OT LS       0.54E+00    4.0                    -1335.6099517526

 *** WARNING in dft_plus_u.F:1457 :: DFT+U energy contibution is negative ***
 *** possibly due to unphysical Mulliken charges. Check your input, if    ***
 *** this warning persists or try a different method!                     ***

    23 OT CG       0.54E+00    8.0     0.00003165     -1335.6099518299 -3.87E-05

 *** WARNING in dft_plus_u.F:1457 :: DFT+U energy contibution is negative ***
 *** possibly due to unphysical Mulliken charges. Check your input, if    ***
 *** this warning persists or try a different method!                     ***

    24 OT LS       0.57E+00    4.0                    -1335.6099913693

 *** WARNING in dft_plus_u.F:1457 :: DFT+U energy contibution is negative ***
 *** possibly due to unphysical Mulliken charges. Check your input, if    ***
 *** this warning persists or try a different method!                     ***

    25 OT CG       0.57E+00    8.0     0.00002943     -1335.6099914465 -3.96E-05

 *** WARNING in dft_plus_u.F:1457 :: DFT+U energy contibution is negative ***
 *** possibly due to unphysical Mulliken charges. Check your input, if    ***
 *** this warning persists or try a different method!                     ***

    26 OT LS       0.44E+00    3.9                    -1335.6100159736

 *** WARNING in dft_plus_u.F:1457 :: DFT+U energy contibution is negative ***
 *** possibly due to unphysical Mulliken charges. Check your input, if    ***
 *** this warning persists or try a different method!                     ***

    27 OT CG       0.44E+00    8.1     0.00002200     -1335.6100181235 -2.67E-05

 *** WARNING in dft_plus_u.F:1457 :: DFT+U energy contibution is negative ***
 *** possibly due to unphysical Mulliken charges. Check your input, if    ***
 *** this warning persists or try a different method!                     ***

    28 OT LS       0.37E+00    4.1                    -1335.6100300118

 *** WARNING in dft_plus_u.F:1457 :: DFT+U energy contibution is negative ***
 *** possibly due to unphysical Mulliken charges. Check your input, if    ***
 *** this warning persists or try a different method!                     ***

    29 OT CG       0.37E+00    8.0     0.00001677     -1335.6100305220 -1.24E-05

 *** WARNING in dft_plus_u.F:1457 :: DFT+U energy contibution is negative ***
 *** possibly due to unphysical Mulliken charges. Check your input, if    ***
 *** this warning persists or try a different method!                     ***

    30 OT LS       0.43E+00    4.1                    -1335.6100387756

 *** WARNING in dft_plus_u.F:1457 :: DFT+U energy contibution is negative ***
 *** possibly due to unphysical Mulliken charges. Check your input, if    ***
 *** this warning persists or try a different method!                     ***

    31 OT CG       0.43E+00    8.0     0.00001430     -1335.6100389552 -8.43E-06

 *** WARNING in dft_plus_u.F:1457 :: DFT+U energy contibution is negative ***
 *** possibly due to unphysical Mulliken charges. Check your input, if    ***
 *** this warning persists or try a different method!                     ***

    32 OT LS       0.45E+00    4.1                    -1335.6100453540

 *** WARNING in dft_plus_u.F:1457 :: DFT+U energy contibution is negative ***
 *** possibly due to unphysical Mulliken charges. Check your input, if    ***
 *** this warning persists or try a different method!                     ***

    33 OT CG       0.45E+00    8.0     0.00001088     -1335.6100453667 -6.41E-06

 *** WARNING in dft_plus_u.F:1457 :: DFT+U energy contibution is negative ***
 *** possibly due to unphysical Mulliken charges. Check your input, if    ***
 *** this warning persists or try a different method!                     ***

    34 OT LS       0.43E+00    4.0                    -1335.6100488688

 *** WARNING in dft_plus_u.F:1457 :: DFT+U energy contibution is negative ***
 *** possibly due to unphysical Mulliken charges. Check your input, if    ***
 *** this warning persists or try a different method!                     ***

    35 OT CG       0.43E+00    8.1     0.00000880     -1335.6100488800 -3.51E-06

 *** WARNING in dft_plus_u.F:1457 :: DFT+U energy contibution is negative ***
 *** possibly due to unphysical Mulliken charges. Check your input, if    ***
 *** this warning persists or try a different method!                     ***

    36 OT LS       0.58E+00    4.0                    -1335.6100517782

 *** WARNING in dft_plus_u.F:1457 :: DFT+U energy contibution is negative ***
 *** possibly due to unphysical Mulliken charges. Check your input, if    ***
 *** this warning persists or try a different method!                     ***

    37 OT CG       0.58E+00    8.2     0.00000899     -1335.6100519880 -3.11E-06

 *** WARNING in dft_plus_u.F:1457 :: DFT+U energy contibution is negative ***
 *** possibly due to unphysical Mulliken charges. Check your input, if    ***
 *** this warning persists or try a different method!                     ***

    38 OT LS       0.47E+00    4.0                    -1335.6100545359

 *** WARNING in dft_plus_u.F:1457 :: DFT+U energy contibution is negative ***
 *** possibly due to unphysical Mulliken charges. Check your input, if    ***
 *** this warning persists or try a different method!                     ***

    39 OT CG       0.47E+00    8.1     0.00000787     -1335.6100546592 -2.67E-06

 *** WARNING in dft_plus_u.F:1457 :: DFT+U energy contibution is negative ***
 *** possibly due to unphysical Mulliken charges. Check your input, if    ***
 *** this warning persists or try a different method!                     ***

    40 OT LS       0.47E+00    4.0                    -1335.6100566952

 *** WARNING in dft_plus_u.F:1457 :: DFT+U energy contibution is negative ***
 *** possibly due to unphysical Mulliken charges. Check your input, if    ***
 *** this warning persists or try a different method!                     ***

    41 OT CG       0.47E+00    8.0     0.00000692     -1335.6100566953 -2.04E-06

 *** WARNING in dft_plus_u.F:1457 :: DFT+U energy contibution is negative ***
 *** possibly due to unphysical Mulliken charges. Check your input, if    ***
 *** this warning persists or try a different method!                     ***

    42 OT LS       0.48E+00    4.1                    -1335.6100582923

 *** WARNING in dft_plus_u.F:1457 :: DFT+U energy contibution is negative ***
 *** possibly due to unphysical Mulliken charges. Check your input, if    ***
 *** this warning persists or try a different method!                     ***

    43 OT CG       0.48E+00    8.0     0.00000602     -1335.6100582927 -1.60E-06

 *** WARNING in dft_plus_u.F:1457 :: DFT+U energy contibution is negative ***
 *** possibly due to unphysical Mulliken charges. Check your input, if    ***
 *** this warning persists or try a different method!                     ***

    44 OT LS       0.54E+00    4.0                    -1335.6100596327

 *** WARNING in dft_plus_u.F:1457 :: DFT+U energy contibution is negative ***
 *** possibly due to unphysical Mulliken charges. Check your input, if    ***
 *** this warning persists or try a different method!                     ***

    45 OT CG       0.54E+00    8.1     0.00000542     -1335.6100596485 -1.36E-06

 *** WARNING in dft_plus_u.F:1457 :: DFT+U energy contibution is negative ***
 *** possibly due to unphysical Mulliken charges. Check your input, if    ***
 *** this warning persists or try a different method!                     ***

    46 OT LS       0.42E+00    4.0                    -1335.6100604284

 *** WARNING in dft_plus_u.F:1457 :: DFT+U energy contibution is negative ***
 *** possibly due to unphysical Mulliken charges. Check your input, if    ***
 *** this warning persists or try a different method!                     ***

    47 OT CG       0.42E+00    8.0     0.00000435     -1335.6100605002 -8.52E-07

 *** WARNING in dft_plus_u.F:1457 :: DFT+U energy contibution is negative ***
 *** possibly due to unphysical Mulliken charges. Check your input, if    ***
 *** this warning persists or try a different method!                     ***

    48 OT LS       0.41E+00    4.0                    -1335.6100610350

 *** WARNING in dft_plus_u.F:1457 :: DFT+U energy contibution is negative ***
 *** possibly due to unphysical Mulliken charges. Check your input, if    ***
 *** this warning persists or try a different method!                     ***

    49 OT CG       0.41E+00    8.0     0.00000354     -1335.6100610354 -5.35E-07

 *** WARNING in dft_plus_u.F:1457 :: DFT+U energy contibution is negative ***
 *** possibly due to unphysical Mulliken charges. Check your input, if    ***
 *** this warning persists or try a different method!                     ***

    50 OT LS       0.47E+00    4.1                    -1335.6100614395

 *** WARNING in dft_plus_u.F:1457 :: DFT+U energy contibution is negative ***
 *** possibly due to unphysical Mulliken charges. Check your input, if    ***
 *** this warning persists or try a different method!                     ***

    51 OT CG       0.47E+00    8.0     0.00000306     -1335.6100614477 -4.12E-07

 *** WARNING in dft_plus_u.F:1457 :: DFT+U energy contibution is negative ***
 *** possibly due to unphysical Mulliken charges. Check your input, if    ***
 *** this warning persists or try a different method!                     ***

    52 OT LS       0.47E+00    4.0                    -1335.6100617510

 *** WARNING in dft_plus_u.F:1457 :: DFT+U energy contibution is negative ***
 *** possibly due to unphysical Mulliken charges. Check your input, if    ***
 *** this warning persists or try a different method!                     ***

    53 OT CG       0.47E+00    8.3     0.00000251     -1335.6100617510 -3.03E-07

 *** WARNING in dft_plus_u.F:1457 :: DFT+U energy contibution is negative ***
 *** possibly due to unphysical Mulliken charges. Check your input, if    ***
 *** this warning persists or try a different method!                     ***

    54 OT LS       0.45E+00    4.0                    -1335.6100619482

 *** WARNING in dft_plus_u.F:1457 :: DFT+U energy contibution is negative ***
 *** possibly due to unphysical Mulliken charges. Check your input, if    ***
 *** this warning persists or try a different method!                     ***

    55 OT CG       0.45E+00    8.1     0.00000235     -1335.6100619484 -1.97E-07

 *** WARNING in dft_plus_u.F:1457 :: DFT+U energy contibution is negative ***
 *** possibly due to unphysical Mulliken charges. Check your input, if    ***
 *** this warning persists or try a different method!                     ***

    56 OT LS       0.46E+00    4.0                    -1335.6100621246

 *** WARNING in dft_plus_u.F:1457 :: DFT+U energy contibution is negative ***
 *** possibly due to unphysical Mulliken charges. Check your input, if    ***
 *** this warning persists or try a different method!                     ***

    57 OT CG       0.46E+00    8.1     0.00000206     -1335.6100621246 -1.76E-07

 *** WARNING in dft_plus_u.F:1457 :: DFT+U energy contibution is negative ***
 *** possibly due to unphysical Mulliken charges. Check your input, if    ***
[...]
 flops    32 x    15 x    30             29030400     100.0%      0.0%      0.0%
 flops    64 x    15 x    30             29030400     100.0%      0.0%      0.0%
 flops    19 x    13 x     2             30209088     100.0%      0.0%      0.0%
 flops     2 x    13 x    19             30209088     100.0%      0.0%      0.0%
 flops    19 x     8 x    15             30387840     100.0%      0.0%      0.0%
 flops     8 x    19 x    15             30387840     100.0%      0.0%      0.0%
 flops    45 x    13 x    43             33808320     100.0%      0.0%      0.0%
 flops   110 x    13 x    43             34434400     100.0%      0.0%      0.0%
 flops    19 x    15 x     2             34521480     100.0%      0.0%      0.0%
 flops     2 x    15 x    19             34521480     100.0%      0.0%      0.0%
 flops    45 x    32 x    13             34894080     100.0%      0.0%      0.0%
 flops    45 x    13 x    32             34894080     100.0%      0.0%      0.0%
 flops    32 x    13 x    30             37739520     100.0%      0.0%      0.0%
 flops   110 x    15 x    43             39732000     100.0%      0.0%      0.0%
 flops    47 x    15 x    43             40743360     100.0%      0.0%      0.0%
 flops     8 x     8 x    13             45939712     100.0%      0.0%      0.0%
 flops    19 x    13 x    19             47831056     100.0%      0.0%      0.0%
 flops     8 x    13 x     2             50878464     100.0%      0.0%      0.0%
 flops     2 x    13 x     8             50878464     100.0%      0.0%      0.0%
 flops    47 x    15 x    32             52564800     100.0%      0.0%      0.0%
 flops    47 x    32 x    15             52564800     100.0%      0.0%      0.0%
 flops     8 x     8 x    15             53007360     100.0%      0.0%      0.0%
 flops    19 x    15 x    19             54659010     100.0%      0.0%      0.0%
 flops    32 x    15 x    43             55480320     100.0%      0.0%      0.0%
 flops    64 x    15 x    43             55480320     100.0%      0.0%      0.0%
 flops     8 x    15 x     2             58141440     100.0%      0.0%      0.0%
 flops     2 x    15 x     8             58141440     100.0%      0.0%      0.0%
 flops    64 x    32 x    15             71577600     100.0%      0.0%      0.0%
 flops    32 x    15 x    32             71577600     100.0%      0.0%      0.0%
 flops    32 x    32 x    15             71577600     100.0%      0.0%      0.0%
 flops    64 x    15 x    32             71577600     100.0%      0.0%      0.0%
 flops    32 x    13 x    43             72124416     100.0%      0.0%      0.0%
 flops    32 x    13 x    32             74440704     100.0%      0.0%      0.0%
 flops    32 x    32 x    13             74440704     100.0%      0.0%      0.0%
 flops    19 x    13 x     8             80557568     100.0%      0.0%      0.0%
 flops     8 x    13 x    19             80557568     100.0%      0.0%      0.0%
 flops   109 x    13 x    32             84883968     100.0%      0.0%      0.0%
 flops   109 x    32 x    13             84883968     100.0%      0.0%      0.0%
 flops   112 x    13 x    32             87220224     100.0%      0.0%      0.0%
 flops   112 x    32 x    13             87220224     100.0%      0.0%      0.0%
 flops    19 x    15 x     8             92057280     100.0%      0.0%      0.0%
 flops     8 x    15 x    19             92057280     100.0%      0.0%      0.0%
 flops    45 x    32 x    24             92897280     100.0%      0.0%      0.0%
 flops   109 x    32 x    24            105477120     100.0%      0.0%      0.0%
 flops   112 x    32 x    24            108380160     100.0%      0.0%      0.0%
 flops    47 x    32 x    24            121282560     100.0%      0.0%      0.0%
 flops   109 x    15 x    32            122428800     100.0%      0.0%      0.0%
 flops   109 x    32 x    15            122428800     100.0%      0.0%      0.0%
 flops   112 x    15 x    32            125798400     100.0%      0.0%      0.0%
 flops   112 x    32 x    15            125798400     100.0%      0.0%      0.0%
 flops     8 x    13 x     8            135675904     100.0%      0.0%      0.0%
 flops     2 x     2 x    32            141474816     100.0%      0.0%      0.0%
 flops     8 x    15 x     8            155043840     100.0%      0.0%      0.0%
 flops    64 x    32 x    24            165150720     100.0%      0.0%      0.0%
 flops   110 x    32 x    13            171325440     100.0%      0.0%      0.0%
 flops   110 x    13 x    32            171325440     100.0%      0.0%      0.0%
 flops    45 x    32 x    30            174182400     100.0%      0.0%      0.0%
 flops   109 x    32 x    30            197769600     100.0%      0.0%      0.0%
 flops   112 x    32 x    30            203212800     100.0%      0.0%      0.0%
 flops   110 x    32 x    24            212889600     100.0%      0.0%      0.0%
 flops    19 x     2 x    32            218792448     100.0%      0.0%      0.0%
 flops     2 x    19 x    32            218792448     100.0%      0.0%      0.0%
 flops    47 x    32 x    30            227404800     100.0%      0.0%      0.0%
 flops   110 x    32 x    15            247104000     100.0%      0.0%      0.0%
 flops   110 x    15 x    32            247104000     100.0%      0.0%      0.0%
 flops    64 x    32 x    30            309657600     100.0%      0.0%      0.0%
 flops    45 x    32 x    43            332881920     100.0%      0.0%      0.0%
 flops    45 x    32 x    32            343572480     100.0%      0.0%      0.0%
 flops    32 x    32 x    24            363331584     100.0%      0.0%      0.0%
 flops     8 x     2 x    32            368492544     100.0%      0.0%      0.0%
 flops     2 x     8 x    32            368492544     100.0%      0.0%      0.0%
 flops   109 x    32 x    43            377959680     100.0%      0.0%      0.0%
 flops   112 x    32 x    43            388362240     100.0%      0.0%      0.0%
 flops    19 x    19 x    32            395910144     100.0%      0.0%      0.0%
 flops   110 x    32 x    30            399168000     100.0%      0.0%      0.0%
 flops     2 x    32 x     2            420424704     100.0%      0.0%      0.0%
 flops    47 x    32 x    43            434595840     100.0%      0.0%      0.0%
 flops    47 x    32 x    32            560691200     100.0%      0.0%      0.0%
 flops    19 x     8 x    32            583446528     100.0%      0.0%      0.0%
 flops     8 x    19 x    32            583446528     100.0%      0.0%      0.0%
 flops    64 x    32 x    43            591790080     100.0%      0.0%      0.0%
 flops    19 x    32 x     2            665672448     100.0%      0.0%      0.0%
 flops     2 x    32 x    19            665672448     100.0%      0.0%      0.0%
 flops    32 x    32 x    30            681246720     100.0%      0.0%      0.0%
 flops   110 x    32 x    43            762854400     100.0%      0.0%      0.0%
 flops    64 x    32 x    32            763494400     100.0%      0.0%      0.0%
 flops     8 x     8 x    32           1017741312     100.0%      0.0%      0.0%
 flops    19 x    32 x    19           1053981376     100.0%      0.0%      0.0%
 flops     8 x    32 x     2           1121132544     100.0%      0.0%      0.0%
 flops     2 x    32 x     8           1121132544     100.0%      0.0%      0.0%
 flops    32 x    32 x    43           1301938176     100.0%      0.0%      0.0%
 flops    32 x    32 x    32           1496449024     100.0%      0.0%      0.0%
 flops    19 x    32 x     8           1775126528     100.0%      0.0%      0.0%
 flops     8 x    32 x    19           1775126528     100.0%      0.0%      0.0%
 flops   109 x    32 x    32           2141687808     100.0%      0.0%      0.0%
 flops   112 x    32 x    32           2200633344     100.0%      0.0%      0.0%
 flops     8 x    32 x     8           2989686784     100.0%      0.0%      0.0%
 flops   110 x    32 x    32           4322672640     100.0%      0.0%      0.0%
 flops inhomo. stacks                  3928565592     100.0%      0.0%      0.0%
 flops total                        43.439577E+09     100.0%      0.0%      0.0%
 flops max/rank                      2.296641E+09     100.0%      0.0%      0.0%
 matmuls inhomo. stacks                     26796     100.0%      0.0%      0.0%
 matmuls total                            9215425     100.0%      0.0%      0.0%
 number of processed stacks                915376     100.0%      0.0%      0.0%
 average stack size                                    10.1       0.0       0.0
 marketing flops                    47.175246E+09
 -------------------------------------------------------------------------------
 # multiplications                           1687
 max memory usage/rank               1.227284E+09
 # max total images/rank                        3
 # max 3D layers                                1
 # MPI messages exchanged                 3562944
 MPI messages size (bytes):
  total size                        18.220696E+09
  min size                           0.000000E+00
  max size                          43.904000E+03
  average size                       5.113944E+03
 MPI breakdown and total messages size (bytes):
             size <=      128             2122670                        0
       128 < size <=     8192              687126               4434874664
      8192 < size <=    32768              667832              10528599312
     32768 < size <=   131072               85316               3257194248
    131072 < size <=  4194304                   0                        0
   4194304 < size <= 16777216                   0                        0
  16777216 < size                               0                        0
 -------------------------------------------------------------------------------

 *** WARNING in dbcsr/mm/dbcsr_mm.F:268 :: Using a non-square number of ***
 *** MPI ranks might lead to poor performance.                          ***
 *** Used ranks: 48                                                     ***
 *** Suggested: 49 100                                                  ***

 -------------------------------------------------------------------------------

 MEMORY| Estimated peak process memory [MiB]                                1171

 -------------------------------------------------------------------------------
 ----                             MULTIGRID INFO                            ----
 -------------------------------------------------------------------------------
 count for grid        1:        1453653          cutoff [a.u.]          325.00
 count for grid        2:         608930          cutoff [a.u.]          108.33
 count for grid        3:         373080          cutoff [a.u.]           36.11
 count for grid        4:         125111          cutoff [a.u.]           12.04
 count for grid        5:           4320          cutoff [a.u.]            4.01
 count for grid        6:              0          cutoff [a.u.]            1.34
 count for grid        7:              0          cutoff [a.u.]            0.45
 count for grid        8:              0          cutoff [a.u.]            0.15
 count for grid        9:              0          cutoff [a.u.]            0.05
 count for grid       10:              0          cutoff [a.u.]            0.02
 total gridlevel count  :        2565094

 -------------------------------------------------------------------------------
 -                                                                             -
 -                         MESSAGE PASSING PERFORMANCE                         -
 -                                                                             -
 -------------------------------------------------------------------------------

 ROUTINE             CALLS      AVE VOLUME [Bytes]
 MP_Group               31
 MP_Bcast             1018                 318669.
 MP_Allreduce        10277                    533.
 MP_Sync              1234
 MP_Alltoall          8384               16885453.
 MP_ISendRecv        76704                 123544.
 MP_Wait            289532
 MP_ISend           183424                  70305.
 MP_IRecv           182888                  70431.
 MP_Recv                88                  47628.
 MP_Memory          129106
 -------------------------------------------------------------------------------


 -------------------------------------------------------------------------------
 -                                                                             -
 -                           R E F E R E N C E S                               -
 -                                                                             -
 -------------------------------------------------------------------------------
 
 CP2K version 6.1, the CP2K developers group (2018).
 CP2K is freely available from https://www.cp2k.org/ .

 Schuett, Ole; Messmer, Peter; Hutter, Juerg; VandeVondele, Joost. 
 Electronic Structure Calculations on Graphics Processing Units, John Wiley & Sons, Ltd, 173-190 (2016). 
 GPU-Accelerated Sparse Matrix-Matrix Multiplication for Linear Scaling Density Functional Theory.
 http://dx.doi.org/10.1002/9781118670712.ch8


 Borstnik, U; VandeVondele, J; Weber, V; Hutter, J. 
 PARALLEL COMPUTING, 40 (5-6), 47-58 (2014). 
 Sparse matrix multiplication: The distributed block-compressed sparse
 row library.
 http://dx.doi.org/10.1016/j.parco.2014.03.012


 Hutter, J; Iannuzzi, M; Schiffmann, F; VandeVondele, J. 
 WILEY INTERDISCIPLINARY REVIEWS-COMPUTATIONAL MOLECULAR SCIENCE, 4 (1), 15-25 (2014). 
 CP2K: atomistic simulations of condensed matter systems.
 http://dx.doi.org/10.1002/wcms.1159


 Krack, M. 
 THEORETICAL CHEMISTRY ACCOUNTS, 114 (1-3), 145-152 (2005). 
 Pseudopotentials for H to Kr optimized for gradient-corrected
 exchange-correlation functionals.
 http://dx.doi.org/10.1007/s00214-005-0655-y


 VandeVondele, J; Krack, M; Mohamed, F; Parrinello, M; Chassaing, T;
 Hutter, J. COMPUTER PHYSICS COMMUNICATIONS, 167 (2), 103-128 (2005). 
 QUICKSTEP: Fast and accurate density functional calculations using a
 mixed Gaussian and plane waves approach.
 http://dx.doi.org/10.1016/j.cpc.2004.12.014


 Frigo, M; Johnson, SG. 
 PROCEEDINGS OF THE IEEE, 93 (2), 216-231 (2005). 
 The design and implementation of FFTW3.
 http://dx.doi.org/10.1109/JPROC.2004.840301


 VandeVondele, J; Hutter, J. 
 JOURNAL OF CHEMICAL PHYSICS, 118 (10), 4365-4369 (2003). 
 An efficient orbital transformation method for electronic structure
 calculations.
 http://dx.doi.org/10.1063/1.1543154


 Hartwigsen, C; Goedecker, S; Hutter, J. 
 PHYSICAL REVIEW B, 58 (7), 3641-3662 (1998). 
 Relativistic separable dual-space Gaussian pseudopotentials from H to Rn.
 http://dx.doi.org/10.1103/PhysRevB.58.3641


 Dudarev, SL; Botton, GA; Savrasov, SY; Humphreys, CJ; Sutton, AP. 
 PHYSICAL REVIEW B, 57 (3), 1505-1509 (1998). 
 Electron-energy-loss spectra and the structural stability of
 nickel oxide: An LSDA+U study.
 http://dx.doi.org/10.1103/PhysRevB.57.1505


 Lippert, G; Hutter, J; Parrinello, M. 
 MOLECULAR PHYSICS, 92 (3), 477-487 (1997). 
 A hybrid Gaussian and plane wave density functional scheme.
 http://dx.doi.org/10.1080/002689797170220


 Dudarev, SL; Manh, DN; Sutton, AP. 
 PHILOSOPHICAL MAGAZINE B, 75 (5), 613-628 (1997). 
 Effect of Mott-Hubbard correlations on the electronic
 structure and structural stability of uranium dioxide.
 http://dx.doi.org/10.1080/13642819708202343


 Goedecker, S; Teter, M; Hutter, J. 
 PHYSICAL REVIEW B, 54 (3), 1703-1710 (1996). 
 Separable dual-space Gaussian pseudopotentials.
 http://dx.doi.org/10.1103/PhysRevB.54.1703


 BECKE, AD. PHYSICAL REVIEW A, 38 (6), 3098-3100 (1988). 
 DENSITY-FUNCTIONAL EXCHANGE-ENERGY APPROXIMATION WITH CORRECT
 ASYMPTOTIC-BEHAVIOR.
 http://dx.doi.org/10.1103/PhysRevA.38.3098


 LEE, CT; YANG, WT; PARR, RG. 
 PHYSICAL REVIEW B, 37 (2), 785-789 (1988). 
 DEVELOPMENT OF THE COLLE-SALVETTI CORRELATION-ENERGY FORMULA INTO A
 FUNCTIONAL OF THE ELECTRON-DENSITY.
 http://dx.doi.org/10.1103/PhysRevB.37.785


 -------------------------------------------------------------------------------
 -                                                                             -
 -                                T I M I N G                                  -
 -                                                                             -
 -------------------------------------------------------------------------------
 SUBROUTINE                       CALLS  ASD         SELF TIME        TOTAL TIME
                                MAXIMUM       AVERAGE  MAXIMUM  AVERAGE  MAXIMUM
 CP2K                                 1  1.0    0.022    0.030  410.102  410.103
 qs_energies                          1  2.0    0.000    0.000  409.171  409.171
 scf_env_do_scf                       1  3.0    0.000    0.000  406.515  406.515
 scf_env_do_scf_inner_loop           67  4.0    0.002    0.005  400.055  400.066
 pw_transfer                       3019  9.3    0.139    0.167  301.450  305.787
 fft_wrap_pw1pw2                   2885 10.3    0.019    0.023  299.660  303.960
 fft_wrap_pw1pw2_330               1049 11.9   17.221   18.114  286.416  290.602
 qs_ks_update_qs_env                 68  5.0    0.002    0.002  284.673  284.683
 rebuild_ks_matrix                   67  6.0    0.000    0.000  284.664  284.675
 qs_ks_build_kohn_sham_matrix        67  7.0    0.013    0.023  284.664  284.675
 fft3d_ps                          2885 12.3  136.338  140.975  237.922  240.215
 qs_vxc_create                       67  8.0    0.001    0.001  225.442  226.162
 xc_vxc_pw_create                    34  9.0    2.973    3.396  156.782  157.502
 xc_rho_set_and_dset_create          67 10.0    6.526    7.021  139.487  140.986
 qs_rho_update_rho                   68  5.0    0.000    0.001  121.379  121.383
 calculate_rho_elec                 136  6.0    4.152   14.097  121.378  121.382
 density_rs2pw                      136  7.0    0.010    0.011  112.382  115.030
 mp_alltoall_z22v                  2885 14.3   63.163   81.718   63.163   81.718
 xc_exc_calc                         33  9.0    0.327    0.337   68.659   68.660
 x_to_yz                            844 14.3   27.210   28.267   64.343   68.318
 yz_to_x                            817 12.7   10.945   11.918   36.953   45.394
 rs_pw_transfer                    2044  9.0    0.016    0.019   40.299   42.297
 sum_up_and_integrate                34  8.0    0.413    0.429   41.212   41.214
 integrate_v_rspace                  68  9.0    1.207    5.154   40.799   40.853
 potential_pw2rs                     68 10.0    0.059    0.068   35.539   35.598
 pw_scatter_p                      1252 13.5   23.273   29.305   23.273   29.305
 pw_gather_p                       1633 11.4   20.445   20.968   20.445   20.968
 rs_pw_transfer_RS2PW_330           138  9.0    6.780    8.001   16.906   19.104
 mp_waitany                       21424 11.0   13.209   16.059   13.209   16.059
 pw_derive                          606 10.7   12.994   13.532   12.994   13.532
 fft_wrap_pw1pw2_110                204 11.0    0.662    0.702   10.453   10.975
 pw_copy                           1418 10.8    8.568    9.130    8.568    9.130
 -------------------------------------------------------------------------------

 The number of warnings for this run is : 68
 
 -------------------------------------------------------------------------------
  **** **** ******  **  PROGRAM ENDED AT                 2019-08-07 08:41:23.696
 ***** ** ***  *** **   PROGRAM RAN ON            cpn-u26-29.cbls.ccr.buffalo.ed
 **    ****   ******    PROGRAM RAN BY                                  pavankum
 ***** **    ** ** **   PROGRAM PROCESS ID                                 46431
  **** **  *******  **  PROGRAM STOPPED IN /projects/academic/mdupuis2/pavan/VAB
                                           _calculation/results_for_paper/3.1D_F
                                           e_7units/blyp_plusU9/point_0.3
