     216
 i =        1, E =     -5073.7221363620
 Bi         2.5904900828        1.2740905859       10.2341105420
 Bi         2.5565175850        6.3662476680       10.2344201957
 Bi         2.5216992441       11.4600135630       10.2345981842
 Bi         7.7827388463        1.2780026057       10.2274231363
 Bi         7.7529894162        6.3620767512       10.2274232106
 Bi         7.7167929580       11.4601192595       10.2341980331
 Bi        12.9792107673        1.2738315910       10.2344201627
 Bi        12.9452382260        6.3659887139       10.2341104999
 Bi        12.9118868236       11.4602250295       10.2345981165
 Bi         2.5733626463        3.8199847372        1.4696415839
 Bi         2.5387878644        8.9130328103        1.4693687045
 Bi         2.5045946670       14.0073406399        1.4697275178
 Bi         7.7678642299        3.8200394884        1.4696209400
 Bi         7.7337938427        8.9123551650        1.4694887066
 Bi         7.6997923822       14.0078830787        1.4694887672
 Bi        12.9623657684        3.8200942520        1.4696416228
 Bi        12.9289916437        8.9128975650        1.4697274294
 Bi        12.8947982801       14.0072053360        1.4693688683
 Bi        -0.0083727688        1.2738402910        7.3214977560
 Bi        -0.0426974578        6.3662404301        7.3214977926
 Bi        -0.0766062250       11.4601199336        7.3217807535
 Bi         5.1945988310        1.2795827056        7.3245827187
 Bi         5.1593907035        6.3594725820        7.3188303192
 Bi         5.1195106997       11.4599952429        7.3220658201
 Bi        10.3763387219        1.2806081521        7.3188303773
 Bi        10.3411305345        6.3604980339        7.3245827657
 Bi        10.3140763506       11.4602444677        7.3220658630
 Bi        -0.0255356513        3.8200398647        4.3834917765
 Bi        -0.0596985844        8.9129599188        4.3830791280
 Bi        -0.0935149692       14.0072788681        4.3830790785
 Bi         5.1748034818        3.8220101599        4.3902121210
 Bi         5.1368593886        8.9122378463        4.3835593640
 Bi         5.1025121441       14.0080503389        4.3832401048
 Bi        10.3609247863        3.8180694928        4.3902121643
 Bi        10.3310739787        8.9121884176        4.3832400463
 Bi        10.2967266115       14.0080009453        4.3835594496
  O         3.8902283895        1.9865340847        0.5231592846
  O         3.8560286643        7.0802180243        0.5229790903
  O         3.8224815335       12.1731770857        0.5231550981
  O         9.0873003727        1.9863060330        0.5242459477
  O         9.0530894698        7.0800869077        0.5241925908
  O         9.0185476014       12.1728264842        0.5234527551
  O        14.2822339852        1.9861975209        0.5233188612
  O        14.2480237275        7.0798266183        0.5234219555
  O        14.2140259340       12.1729927226        0.5232751734
  O         3.3036945665        2.5450878896        3.4477706481
  O         3.2714117009        7.6402885467        3.4477971735
  O         3.2370351273       12.7331196865        3.4479556337
  O         8.5009665719        2.5466020105        3.4469682697
  O         8.4678963742        7.6412351989        3.4473102396
  O         8.4329016002       12.7332201863        3.4480255933
  O        13.6967509356        2.5466690998        3.4479322531
  O        13.6630752434        7.6407860795        3.4474660294
  O        13.6285353381       12.7333920635        3.4479802172
  O         1.2750992336        4.5334925133        6.3749756437
  O         1.2413033431        9.6267412582        6.3750991066
  O         1.2074319312       14.7198427061        6.3751863936
  O         6.4537103820        4.5462795767        6.3605188766
  O         6.4367122562        9.6269896491        6.3749653454
  O         6.4037866519       14.7190188634        6.3751666617
  O        11.6687609851        4.5327094371        6.3755552372
  O        11.6330307020        9.6265463537        6.3754630731
  O        11.6009121636       14.7180303560        6.3750014116
  O         0.7241003228       -0.0006571400        9.3005415720
  O         0.6903917412        5.0931852954        9.3004564238
  O         0.6565289044       10.1868049790        9.3002982702
  O         5.9193402800       -0.0017542414        9.3013413220
  O         5.8848601945        5.0938549894        9.3017664995
  O         5.8523073654       10.1873358263        9.2999812638
  O        11.1161999769       -0.0012800232        9.3023549702
  O        11.0837434839        5.0937250881        9.3013065131
  O        11.0480666131       10.1871192157        9.3001592808
  O         1.7705108686       15.2794523562        3.4474658125
  O         1.8389775728        5.0934102499        3.4479320507
  O         1.8050508201       10.1868464428        3.4479799999
  O         6.9656897097       15.2790032220        3.4473100527
  O         7.0347617593        5.0934773156        3.4469680569
  O         7.0006844521       10.1870183010        3.4480253614
  O        12.1621743881       15.2799498456        3.4477969619
  O        12.2320337514        5.0949913969        3.4477703927
  O        12.1965510121       10.1871187954        3.4479554008
  O         0.7073041149        2.5462984845        2.4039158430
  O         0.6735897083        7.6401074604        2.4042101060
  O         0.6393692444       12.7331849347        2.4040900814
  O         5.9031633849        2.5456437545        2.4030829653
  O         5.8693129980        7.6404334106        2.4041918992
  O         5.8349467352       12.7330721004        2.4040491226
  O        11.0991616451        2.5458063167        2.4031317732
  O        11.0652352553        7.6406031198        2.4043800116
  O        11.0308121821       12.7332361287        2.4039192339
  O         4.4519849779        2.5463546760        9.3013062296
  O         4.4195284142        7.6413598920        9.3023546752
  O         4.3855196905       12.7331196398        9.3001590008
  O         9.6508682712        2.5462247959        9.3017661820
  O         9.6163882413        7.6418341071        9.3013410246
  O         9.5812787654       12.7329029982        9.2999809534
  O        14.8453368397        2.5468944615        9.3004561601
  O        14.8116282503        7.6407369891        9.3005412878
  O        14.7770574278       12.7334339028        9.3002979645
  O         1.2706694452        3.1070492186       11.1813606764
  O         1.2365200485        8.2006782679       11.1814176844
  O         1.2027215208       13.2937914702       11.1813972464
  O         6.4663376927        3.1070821150       11.1823615193
  O         6.4308058876        8.2020683584       11.1816021487
  O         6.3983902800       13.2936560060       11.1814420604
  O        11.6632248050        3.1061867784       11.1820148152
  O        11.6283253531        8.2003432045       11.1815865423
  O        11.5947478671       13.2932771525       11.1819113305
  O         1.8555987389        2.5460165399        8.2569353325
  O         1.8219843092        7.6401128981        8.2564242979
  O         1.7877414269       12.7329991819        8.2567761055
  O         7.0385262550        2.5300784179        8.2713940958
  O         7.0180469468        7.6418055204        8.2562939350
  O         6.9832188005       12.7327711986        8.2568876801
  O        12.2481348574        2.5471532983        8.2567133995
  O        12.2151594810        7.6420010532        8.2568558102
  O        12.1792439975       12.7332067974        8.2566804999
  O         3.8844106118        0.5599934146        5.3271054867
  O         3.8499848396        5.6545618510        5.3281401423
  O         3.8169519354       10.7476297675        5.3288606799
  O         9.0817659644        0.5582521750        5.3281158662
  O         9.0478540492        5.6550845327        5.3275930468
  O         9.0130464432       10.7472912902        5.3289356682
  O        14.2772889611        0.5600037209        5.3292177876
  O        14.2434887735        5.6535470634        5.3294089792
  O        14.2089027308       10.7471002250        5.3290909644
  O         4.3683508242       15.2796349841        2.4043797502
  O         4.4365666957        5.0942727284        2.4031314597
  O         4.4027738016       10.1870020636        2.4039189556
  O         9.5642729514       15.2798047194        2.4041916669
  O         9.6325647918        5.0944352984        2.4030827166
  O         9.5986392307       10.1871660799        2.4040488634
  O        14.7599962723       15.2801306601        2.4042098648
  O        14.8284241855        5.0937805884        2.4039155897
  O        14.7942168500       10.1870532979        2.4040898189
  O         3.8725031790        4.5338922219       11.1820148601
  O         3.8388378092        9.6269610910       11.1819113850
  O         3.8052603569       14.7198949052       11.1815865473
  O         9.0693902449        4.5329969619       11.1823615792
  O         9.0351954099        9.6265822764       11.1814420782
  O         9.0027797390       14.7181697857       11.1816021903
  O        14.2650586050        4.5330298342       11.1813607052
  O        14.2308642390        9.6264467534       11.1813972344
  O        14.1970657003       14.7195598277       11.1814176996
  O         3.3205696917       -0.0019209089        8.2568560385
  O         3.2875942881        5.0929267975        8.2567136409
  O         3.2543427398       10.1870324864        8.2566807260
  O         8.5176820335       -0.0017253186        8.2562941160
  O         8.4972026792        5.1100017149        8.2713943183
  O         8.4503678699       10.1874681023        8.2568879047
  O        13.7137446924       -0.0000327279        8.2564245062
  O        13.6801302920        5.0940635940        8.2569355692
  O        13.6458453960       10.1872401723        8.2567763318
  O         1.2922392751        1.9865326135        5.3294087627
  O         1.2584391293        7.0800759305        5.3292175449
  O         1.2246831468       12.1731386213        5.3290907449
  O         6.4878740507        1.9849951488        5.3275928302
  O         6.4539621567        7.0818275104        5.3281156336
  O         6.4205394451       12.1729475007        5.3289354889
  O        11.6857433127        1.9855178152        5.3281399082
  O        11.6513174548        7.0800861899        5.3271052506
  O        11.6166339232       12.1726090365        5.3288604838
  O         3.8669683097        3.1073705686        6.3755553940
  O         3.8326748757        8.2022088462        6.3750016156
  O         3.8005564463       13.2936927774        6.3754632449
  O         9.0820189196        3.0938004493        6.3605190641
  O         9.0298004424        8.2012203889        6.3751668801
  O         8.9968748200       13.2932494996        6.3749655365
  O        14.2606301898        3.1065876039        6.3749757741
  O        14.2261552792        8.2003966019        6.3751865834
  O        14.1922837935       13.2934979385        6.3750992649
  O         1.2877049236        0.5602527039        0.5234219517
  O         1.2534947020        5.6538817540        0.5233188649
  O         1.2195604839       10.7472457212        0.5232751445
  O         6.4826391841        0.5599925010        0.5241925736
  O         6.4484283274        5.6537732907        0.5242459507
  O         6.4150387516       10.7474120001        0.5234527573
  O        11.6797000148        0.5598612914        0.5229791118
  O        11.6455002095        5.6535451343        0.5231592768
  O        11.6111048498       10.7470613756        0.5231550669
  V        -0.0084247350        1.2736485629        1.4498264474
  V        -0.0426463381        6.3664306056        1.4498264424
  V        -0.0766066453       11.4601191756        1.4497405092
  V         5.1881673476        1.2740220587        1.4498390318
  V         5.1537225542        6.3657212273        1.4496749567
  V         5.1193177377       11.4600280979        1.4496435722
  V        10.3820060040        1.2743579356        1.4496749528
  V        10.3475611689        6.3660571031        1.4498390586
  V        10.3142685098       11.4602101882        1.4496435383
  V         2.5740673327        3.8199453467        7.3017324348
  V         2.5396134123        8.9125894301        7.3014909102
  V         2.5050511132       14.0082107627        7.3024751903
  V         7.7678646220        3.8200402604        7.3020268362
  V         7.7336807087        8.9115681516        7.3021944421
  V         7.6999062803       14.0086712962        7.3021943997
  V        12.9616619851        3.8201349962        7.3017323936
  V        12.9285359991        8.9120287263        7.3024752405
  V        12.8939735998       14.0076500173        7.3014908206
  V        -0.0255356443        3.8200397976       10.2545443198
  V        -0.0596011208        8.9129508776       10.2545448208
  V        -0.0936124164       14.0072878483       10.2545448252
  V         5.1724854410        3.8191073127       10.2523529415
  V         5.1367630247        8.9118813261       10.2547304957
  V         5.1027799098       14.0078691315       10.2541670070
  V        10.3632428055        3.8209722558       10.2523529901
  V        10.3308061086        8.9123695807       10.2541670469
  V        10.2968228928       14.0083573429       10.2547304966
  V         2.5908678749        1.2741185300        4.4025205637
  V         2.5562902023        6.3659770360        4.4030987831
  V         2.5216993668       11.4601229631        4.4027376127
  V         7.7859746368        1.2758982020        4.4050934846
  V         7.7497535100        6.3641810889        4.4050934409
  V         7.7167929454       11.4601191927        4.4027360830
  V        12.9794379793        1.2741022679        4.4030987711
  V        12.9448602390        6.3659607389        4.4025204899
  V        12.9118865204       11.4601154570        4.4027376250
     216
 i =        2, E =     -5073.7249527826
 Bi         2.5906439413        1.2741739479       10.2340035350
 Bi         2.5567242193        6.3662257859       10.2343429053
 Bi         2.5217761614       11.4599773903       10.2345386983
 Bi         7.7823230904        1.2787394488       10.2261202199
 Bi         7.7534051799        6.3613399098       10.2261203011
 Bi         7.7167929640       11.4601192579       10.2340695685
 Bi        12.9790041442        1.2738534708       10.2343428730
 Bi        12.9450843721        6.3659053556       10.2340034932
 Bi        12.9118099143       11.4602612010       10.2345386227
 Bi         2.5735508292        3.8199572679        1.4696893073
 Bi         2.5388818071        8.9129864366        1.4693123334
 Bi         2.5046452774       14.0074292333        1.4697842736
 Bi         7.7678642282        3.8200394895        1.4696255667
 Bi         7.7337710813        8.9121706867        1.4694464955
 Bi         7.6998151395       14.0080675619        1.4694465620
 Bi        12.9621775846        3.8201217231        1.4696893458
 Bi        12.9289410328        8.9128089728        1.4697841863
 Bi        12.8947043345       14.0072517149        1.4693125021
 Bi        -0.0083429156        1.2738859974        7.3214257558
 Bi        -0.0427273177        6.3661947153        7.3214257919
 Bi        -0.0766062282       11.4601199293        7.3217812971
 Bi         5.1958809479        1.2806080033        7.3251515700
 Bi         5.1604435932        6.3582344529        7.3182398040
 Bi         5.1195623848       11.4599654838        7.3221430257
 Bi        10.3752858285        1.2818462694        7.3182398533
 Bi        10.3398484166        6.3594727257        7.3251516240
 Bi        10.3140246587       11.4602742183        7.3221430684
 Bi        -0.0255356506        3.8200398644        4.3836180059
 Bi        -0.0597365288        8.9128897227        4.3831367721
 Bi        -0.0934770259       14.0073490670        4.3831367162
 Bi         5.1755565268        3.8223947312        4.3915199285
 Bi         5.1369565341        8.9120902696        4.3836631862
 Bi         5.1025453099       14.0082508041        4.3833113505
 Bi        10.3601717362        3.8176849279        4.3915199721
 Bi        10.3310408099        8.9119879549        4.3833112859
 Bi        10.2966294647       14.0081485242        4.3836632776
  O         3.8901773557        1.9865833286        0.5231401476
  O         3.8559806928        7.0802789403        0.5229595070
  O         3.8224908118       12.1732024494        0.5231505242
  O         9.0873950175        1.9863899370        0.5243660566
  O         9.0532058284        7.0801745854        0.5243005214
  O         9.0185680991       12.1728088045        0.5234755404
  O        14.2822639529        1.9862048767        0.5233075762
  O        14.2480414849        7.0798565094        0.5234267444
  O        14.2140500050       12.1730003536        0.5232694789
  O         3.3034338982        2.5448836550        3.4476837651
  O         3.2714111243        7.6402705937        3.4478096331
  O         3.2370093054       12.7330880934        3.4479405347
  O         8.5009353019        2.5465761564        3.4468279413
  O         8.4679026935        7.6411522122        3.4474005772
  O         8.4328948859       12.7331872697        3.4480327268
  O        13.6967471809        2.5466353037        3.4479483466
  O        13.6631248315        7.6408390435        3.4474196736
  O        13.6285171202       12.7333575589        3.4479909305
  O         1.2750975847        4.5335233527        6.3749654146
  O         1.2412883575        9.6267729156        6.3750742060
  O         1.2073866050       14.7198722611        6.3751645158
  O         6.4517111438        4.5482104018        6.3586281012
  O         6.4366992931        9.6270366587        6.3749370655
  O         6.4038680195       14.7189604498        6.3751341724
  O        11.6689313867        4.5327005861        6.3754871582
  O        11.6330205473        9.6265782762        6.3754543272
  O        11.6011216645       14.7178104554        6.3748161013
  O         0.7240383319       -0.0007030729        9.3005571125
  O         0.6903593393        5.0931460594        9.3004849808
  O         0.6565214771       10.1867951586        9.3003209440
  O         5.9192648992       -0.0018942455        9.3013967250
  O         5.8847423344        5.0939874117        9.3018766043
  O         5.8523336506       10.1874089695        9.2999392193
  O        11.1162846442       -0.0013927020        9.3026495911
  O        11.0841218236        5.0937824192        9.3014719965
  O        11.0480675165       10.1871105669        9.3001812801
  O         1.7704612814       15.2793993913        3.4474194593
  O         1.8389813267        5.0934440453        3.4479481463
  O         1.8050690380       10.1868809449        3.4479907158
  O         6.9656833892       15.2790862075        3.4474003956
  O         7.0347930312        5.0935031706        3.4468277314
  O         7.0006911688       10.1870512170        3.4480324985
  O        12.1621749630       15.2799677978        3.4478094280
  O        12.2322944225        5.0951956339        3.4476835142
  O        12.1965768355       10.1871503886        3.4479403061
  O         0.7072637305        2.5462706247        2.4038721629
  O         0.6735882922        7.6400885653        2.4041933000
  O         0.6393511005       12.7331528124        2.4040729813
  O         5.9032257282        2.5455478780        2.4029396956
  O         5.8693385887        7.6404755319        2.4041914121
  O         5.8349288425       12.7330346800        2.4040378003
  O        11.0992208614        2.5456850100        2.4029951623
  O        11.0652713372        7.6406386877        2.4043761919
  O        11.0308181966       12.7332121420        2.4038900114
  O         4.4516066398        2.5462973428        9.3014717159
  O         4.4194437495        7.6414725673        9.3026492989
  O         4.3855187877       12.7331282853        9.3001810028
  O         9.6509861346        2.5460923737        9.3018762924
  O         9.6164636244        7.6419741102        9.3013964325
  O         9.5812524838       12.7328298544        9.2999389137
  O        14.8453692422        2.5469336964        9.3004847207
  O        14.8116902421        7.6407829201        9.3005568321
  O        14.7770648560       12.7334437207        9.3003206422
  O         1.2706444864        3.1070328480       11.1813773680
  O         1.2364975563        8.2006778983       11.1814551172
  O         1.2026939549       13.2937845726       11.1814117694
  O         6.4663128953        3.1070880875       11.1825252950
  O         6.4306025866        8.2022940731       11.1817107816
  O         6.3983655755       13.2936326771       11.1814515841
  O        11.6631557004        3.1061622749       11.1819548598
  O        11.6283195989        8.2003180043       11.1815951658
  O        11.5948133041       13.2931979299       11.1819847021
  O         1.8555808157        2.5460140917        8.2569366270
  O         1.8219767843        7.6401065097        8.2564113244
  O         1.7877339231       12.7329933129        8.2567747617
  O         7.0366261399        2.5282551650        8.2732591659
  O         7.0180791709        7.6419756112        8.2563371849
  O         6.9832129985       12.7327816222        8.2568701576
  O        12.2482174963        2.5472535388        8.2567197251
  O        12.2154067109        7.6422040622        8.2570135198
  O        12.1792361438       12.7331722919        8.2566826356
  O         3.8842989532        0.5598867082        5.3268461405
  O         3.8498621348        5.6546058062        5.3281152815
  O         3.8169120637       10.7476676309        5.3288679413
  O         9.0818326924        0.5578139234        5.3279620094
  O         9.0480010459        5.6551921087        5.3274990350
  O         9.0130156315       10.7472982002        5.3289285651
  O        14.2772902030        0.5599793308        5.3292189280
  O        14.2435717675        5.6534997907        5.3294718315
  O        14.2089021550       10.7470831894        5.3290896317
  O         4.3683147422       15.2795994183        2.4043759359
  O         4.4365074769        5.0943940375        2.4029948521
  O         4.4027677853       10.1870260504        2.4038897363
  O         9.5642473637       15.2797626025        2.4041911830
  O         9.6325024494        5.0945311801        2.4029394473
  O         9.5986571232       10.1872035028        2.4040375424
  O        14.7599976876       15.2801495581        2.4041930608
  O        14.8284645707        5.0938084525        2.4038719142
  O        14.7942349943       10.1870854225        2.4040727228
  O         3.8725722895        4.5339167287       11.1819549022
  O         3.8387723776        9.6270403159       11.1819847561
  O         3.8052661160       14.7199201095       11.1815951707
  O         9.0694150497        4.5329909916       11.1825253511
  O         9.0352201211        9.6266056069       11.1814516010
  O         9.0029830468       14.7179440747       11.1817108211
  O        14.2650835678        4.5330462084       11.1813773960
  O        14.2308918101        9.6264536536       11.1814117567
  O        14.1970881975       14.7195602013       11.1814551316
  O         3.3203224542       -0.0021239233        8.2570137465
  O         3.2875116439        5.0928265531        8.2567199645
  O         3.2543505900       10.1870669859        8.2566828600
  O         8.5176498060       -0.0018954154        8.2563373640
  O         8.4991028019        5.1118249725        8.2732593946
  O         8.4503736693       10.1874576722        8.2568703802
  O        13.7137522131       -0.0000263463        8.2564115296
  O        13.6801482111        5.0940660362        8.2569368606
  O        13.6458528953       10.1872460328        8.2567749850
  O         1.2921562870        1.9865798886        5.3294716183
  O         1.2584378928        7.0801003234        5.3292186884
  O         1.2246837288       12.1731556573        5.3290894153
  O         6.4877270620        1.9848875731        5.3274988202
  O         6.4538954352        7.0822657640        5.3279617789
  O         6.4205702627       12.1729405916        5.3289283879
  O        11.6858660244        1.9854738606        5.3281150497
  O        11.6514291207        7.0801928972        5.3268459070
  O        11.6166738014       12.1725711736        5.3288677473
  O         3.8667979002        3.1073794181        6.3754873122
  O         3.8324653669        8.2024287426        6.3748163031
  O         3.8005665924       13.2936608521        6.3754544954
  O         9.0840181389        3.0918696311        6.3586282917
  O         9.0297190654        8.2012787985        6.3751343887
  O         8.9968877744       13.2932024874        6.3749372534
  O        14.2606318269        3.1065567629        6.3749655435
  O        14.2262005938        8.2003670441        6.3751647033
  O        14.1922987678       13.2934662787        6.3750743624
  O         1.2876871628        0.5602228123        0.5234267408
  O         1.2534647307        5.6538743978        0.5233075799
  O         1.2195364105       10.7472380883        0.5232694503
  O         6.4825228244        0.5599048211        0.5243005036
  O         6.4483336791        5.6536893863        0.5243660598
  O         6.4150182532       10.7474296769        0.5234755418
  O        11.6797479828        0.5598003743        0.5229595281
  O        11.6455512392        5.6534958909        0.5231401407
  O        11.6110955682       10.7470360105        0.5231504934
  V        -0.0084180625        1.2736416159        1.4498302015
  V        -0.0426530096        6.3664375562        1.4498301972
  V        -0.0766066460       11.4601191764        1.4497173499
  V         5.1882069667        1.2740316161        1.4498486312
  V         5.1537246142        6.3656798095        1.4496214914
  V         5.1193088578       11.4600215326        1.4495908826
  V        10.3820039444        1.2743993568        1.4496214893
  V        10.3475215506        6.3660475489        1.4498486581
  V        10.3142773908       11.4602167585        1.4495908494
  V         2.5740517990        3.8199235690        7.3017267304
  V         2.5396882833        8.9125508329        7.3014391659
  V         2.5050923022       14.0082927338        7.3024829791
  V         7.7678646174        3.8200402715        7.3020001636
  V         7.7336516819        8.9115799943        7.3021603603
  V         7.6999352981       14.0086594466        7.3021603184
  V        12.9616775102        3.8201567682        7.3017266903
  V        12.9284948004        8.9119467492        7.3024830300
  V        12.8938987210       14.0076886081        7.3014390779
  V        -0.0255356423        3.8200397983       10.2545479505
  V        -0.0596033800        8.9129566635       10.2545586076
  V        -0.0936101543       14.0072820632       10.2545586126
  V         5.1725781808        3.8189578584       10.2522498061
  V         5.1367828342        8.9118227121       10.2548088966
  V         5.1027592268       14.0078230468       10.2542240320
  V        10.3631500683        3.8211217121       10.2522498534
  V        10.3308267953        8.9124156660       10.2542240707
  V        10.2968030875       14.0084159577       10.2548088973
  V         2.5909213642        1.2741507063        4.4024801786
  V         2.5562450373        6.3659964129        4.4030916045
  V         2.5216908079       11.4601225682        4.4027694516
  V         7.7861550069        1.2760046723        4.4052671213
  V         7.7495731426        6.3640746216        4.4052670781
  V         7.7167929468       11.4601191929        4.4027787204
  V        12.9794831491        1.2740828952        4.4030915931
  V        12.9448067536        6.3659285649        4.4024801051
  V        12.9118950831       11.4601158533        4.4027694625
     216
 i =        3, E =     -5073.7275267875
 Bi         2.5907925299        1.2742568018       10.2338961158
 Bi         2.5569384783        6.3662099696       10.2342591687
 Bi         2.5218546769       11.4599376646       10.2344773342
 Bi         7.7818987559        1.2794764979       10.2247945022
 Bi         7.7538295186        6.3606028649       10.2247945844
 Bi         7.7167929667       11.4601192587       10.2339372003
 Bi        12.9787898902        1.2738692901       10.2342591369
 Bi        12.9449357878        6.3658225053       10.2338960739
 Bi        12.9117314038       11.4603009278       10.2344772574
 Bi         2.5737476479        3.8199252543        1.4697455435
 Bi         2.5389801183        8.9129392637        1.4692507230
 Bi         2.5046960649       14.0075223697        1.4698469440
 Bi         7.7678642270        3.8200394910        1.4696288519
 Bi         7.7337436331        8.9119771830        1.4693960626
 Bi         7.6998425857       14.0082610677        1.4693961297
 Bi        12.9619807613        3.8201537422        1.4697455905
 Bi        12.9288902444        8.9127158385        1.4698468583
 Bi        12.8946060230       14.0072988902        1.4692508914
 Bi        -0.0083102037        1.2739323554        7.3213509010
 Bi        -0.0427600335        6.3661483445        7.3213509435
 Bi        -0.0766062313       11.4601199240        7.3217819898
 Bi         5.1971800991        1.2816447421        7.3257383738
 Bi         5.1615063754        6.3569780432        7.3176311201
 Bi         5.1196128962       11.4599332335        7.3222232921
 Bi        10.3742230376        1.2831026691        7.3176311672
 Bi        10.3385492612        6.3584359785        7.3257384279
 Bi        10.3139741401       11.4603064594        7.3222233344